TACC:  Starting up job 926850 
TACC:  Starting parallel tasks... 

     Program PWSCF v.6.2 (svn rev. 14038) starts on 12Mar2018 at 17:33:44 

     This program is part of the open-source Quantum ESPRESSO suite
     for quantum simulation of materials; please cite
         "P. Giannozzi et al., J. Phys.:Condens. Matter 21 395502 (2009);
         "P. Giannozzi et al., J. Phys.:Condens. Matter 29 465901 (2017);
          URL http://www.quantum-espresso.org", 
     in publications or presentations arising from this work. More details at
     http://www.quantum-espresso.org/quote

     Parallel version (MPI & OpenMP), running on      68 processor cores
     Number of MPI processes:                68
     Threads/MPI process:                     1

     MPI processes distributed on     1 nodes
     K-points division:     npool     =       4
     R & G space division:  proc/nbgrp/npool/nimage =      17
     Reading input from MoS2_WS2_da_0.000_db_0.000.relax.in

     Current dimensions of program PWSCF are:
     Max number of different atomic species (ntypx) = 10
     Max number of k-points (npk) =  40000
     Max angular momentum in pseudopotentials (lmaxx) =  3

     Subspace diagonalization in iterative solution of the eigenvalue problem:
     one sub-group per band group will be used
     ELPA distributed-memory algorithm (size of sub-group:  2*  2 procs)

 
     Parallelization info
     --------------------
     sticks:   dense  smooth     PW     G-vecs:    dense   smooth      PW
     Min          34      34     10                 6399     6399    1012
     Max          36      36     17                 6430     6430    1036
     Sum         595     595    187               108975   108975   17447
 


     bravais-lattice index     =            0
     lattice parameter (alat)  =       6.0170  a.u.
     unit-cell volume          =    1735.1219 (a.u.)^3
     number of atoms/cell      =            6
     number of atomic types    =            3
     number of electrons       =        52.00
     number of Kohn-Sham states=           62
     kinetic-energy cutoff     =      60.0000  Ry
     charge density cutoff     =     240.0000  Ry
     convergence threshold     =      1.0E-08
     mixing beta               =       0.7000
     number of iterations used =            8  plain     mixing
     Exchange-correlation      = PZ ( 1  1  0  0 0 0)
     nstep                     =           50

     Non magnetic calculation with spin-orbit


     celldm(1)=   6.017014  celldm(2)=   0.000000  celldm(3)=   0.000000
     celldm(4)=   0.000000  celldm(5)=   0.000000  celldm(6)=   0.000000

     crystal axes: (cart. coord. in units of alat)
               a(1) = (   0.500000  -0.866025   0.000000 )  
               a(2) = (   0.500000   0.866025   0.000000 )  
               a(3) = (   0.000000   0.000000   9.197215 )  

     reciprocal axes: (cart. coord. in units 2 pi/alat)
               b(1) = (  1.000000 -0.577350  0.000000 )  
               b(2) = (  1.000000  0.577350  0.000000 )  
               b(3) = (  0.000000  0.000000  0.108729 )  


     PseudoPot. # 1 for W  read from file:
     /home1/03904/tlovorn/tmd/pseudo/lda_soc/W_r.oncvpsp.upf
     MD5 check sum: d53a0fd2e1835775de3b9cb09f97b87a
     Pseudo is Norm-conserving, Zval = 14.0
     Generated using ONCVPSP code by D. R. Hamann
     Using radial grid of 1380 points, 14 beta functions with: 
                l(1) =   0
                l(2) =   0
                l(3) =   1
                l(4) =   1
                l(5) =   1
                l(6) =   1
                l(7) =   2
                l(8) =   2
                l(9) =   2
               l(10) =   2
               l(11) =   3
               l(12) =   3
               l(13) =   3
               l(14) =   3

     PseudoPot. # 2 for S  read from file:
     /home1/03904/tlovorn/tmd/pseudo/lda_soc/S_r.oncvpsp.upf
     MD5 check sum: 91b2a97795873f96cc487f0bcce89b6a
     Pseudo is Norm-conserving, Zval =  6.0
     Generated using ONCVPSP code by D. R. Hamann
     Using radial grid of 1146 points,  6 beta functions with: 
                l(1) =   0
                l(2) =   0
                l(3) =   1
                l(4) =   1
                l(5) =   1
                l(6) =   1

     PseudoPot. # 3 for Mo read from file:
     /home1/03904/tlovorn/tmd/pseudo/lda_soc/Mo_r.oncvpsp.upf
     MD5 check sum: fa400afaf929dbfd6ce73e0f67ed1f28
     Pseudo is Norm-conserving, Zval = 14.0
     Generated using ONCVPSP code by D. R. Hamann
     Using radial grid of 1490 points, 10 beta functions with: 
                l(1) =   0
                l(2) =   0
                l(3) =   1
                l(4) =   1
                l(5) =   1
                l(6) =   1
                l(7) =   2
                l(8) =   2
                l(9) =   2
               l(10) =   2

     atomic species   valence    mass     pseudopotential
        W             14.00   183.85000     W ( 1.00)
        S              6.00    32.06600     S ( 1.00)
        Mo            14.00    95.94000     Mo( 1.00)

      6 Sym. Ops. (no inversion) found



   Cartesian axes

     site n.     atom                  positions (alat units)
         1           Mo  tau(   1) = (   0.0000000   0.0000000   3.6346568  )
         2           S   tau(   2) = (   0.5000000   0.2886751   3.1436004  )
         3           S   tau(   3) = (   0.5000000   0.2886751   4.1257132  )
         4           W   tau(   4) = (   0.5000000   0.2886751   5.5655210  )
         5           S   tau(   5) = (   0.0000000   0.0000000   5.0715022  )
         6           S   tau(   6) = (   0.0000000   0.0000000   6.0595399  )

     number of k points=    37  Marzari-Vanderbilt smearing, width (Ry)=  0.0200
                       cart. coord. in units 2pi/alat
        k(    1) = (   0.0000000   0.0000000   0.0000000), wk =   0.0030864
        k(    2) = (   0.0555556   0.0320750   0.0000000), wk =   0.0185185
        k(    3) = (   0.1111111   0.0641500   0.0000000), wk =   0.0185185
        k(    4) = (   0.1666667   0.0962250   0.0000000), wk =   0.0185185
        k(    5) = (   0.2222222   0.1283001   0.0000000), wk =   0.0185185
        k(    6) = (   0.2777778   0.1603751   0.0000000), wk =   0.0185185
        k(    7) = (   0.3333333   0.1924501   0.0000000), wk =   0.0185185
        k(    8) = (   0.3888889   0.2245251   0.0000000), wk =   0.0185185
        k(    9) = (   0.4444444   0.2566001   0.0000000), wk =   0.0185185
        k(   10) = (  -0.5000000  -0.2886751   0.0000000), wk =   0.0092593
        k(   11) = (   0.1111111   0.0000000   0.0000000), wk =   0.0185185
        k(   12) = (   0.1666667   0.0320750   0.0000000), wk =   0.0370370
        k(   13) = (   0.2222222   0.0641500   0.0000000), wk =   0.0370370
        k(   14) = (   0.2777778   0.0962250   0.0000000), wk =   0.0370370
        k(   15) = (   0.3333333   0.1283001   0.0000000), wk =   0.0370370
        k(   16) = (   0.3888889   0.1603751   0.0000000), wk =   0.0370370
        k(   17) = (   0.4444444   0.1924501   0.0000000), wk =   0.0370370
        k(   18) = (   0.5000000   0.2245251   0.0000000), wk =   0.0370370
        k(   19) = (   0.2222222   0.0000000   0.0000000), wk =   0.0185185
        k(   20) = (   0.2777778   0.0320750   0.0000000), wk =   0.0370370
        k(   21) = (   0.3333333   0.0641500   0.0000000), wk =   0.0370370
        k(   22) = (   0.3888889   0.0962250   0.0000000), wk =   0.0370370
        k(   23) = (   0.4444444   0.1283001   0.0000000), wk =   0.0370370
        k(   24) = (   0.5000000   0.1603751   0.0000000), wk =   0.0370370
        k(   25) = (   0.5555556   0.1924501   0.0000000), wk =   0.0185185
        k(   26) = (   0.3333333  -0.0000000   0.0000000), wk =   0.0185185
        k(   27) = (   0.3888889   0.0320750   0.0000000), wk =   0.0370370
        k(   28) = (   0.4444444   0.0641500   0.0000000), wk =   0.0370370
        k(   29) = (   0.5000000   0.0962250   0.0000000), wk =   0.0370370
        k(   30) = (   0.5555556   0.1283001   0.0000000), wk =   0.0370370
        k(   31) = (   0.4444444   0.0000000   0.0000000), wk =   0.0185185
        k(   32) = (   0.5000000   0.0320750   0.0000000), wk =   0.0370370
        k(   33) = (   0.5555556   0.0641500   0.0000000), wk =   0.0370370
        k(   34) = (   0.6111111   0.0962250   0.0000000), wk =   0.0185185
        k(   35) = (   0.5555556  -0.0000000   0.0000000), wk =   0.0185185
        k(   36) = (   0.6111111   0.0320750   0.0000000), wk =   0.0370370
        k(   37) = (   0.6666667  -0.0000000   0.0000000), wk =   0.0061728

     Dense  grid:   108975 G-vectors     FFT dimensions: (  30,  30, 288)

     Estimated max dynamical RAM per process >      68.37 MB

     Estimated total dynamical RAM >       4.54 GB

     Initial potential from superposition of free atoms

     starting charge   51.99867, renormalised to   52.00000

     negative rho (up, down):  1.679E-05 0.000E+00
     Starting wfc are random

     total cpu time spent up to now is        8.4 secs

     Self-consistent Calculation

     iteration #  1     ecut=    60.00 Ry     beta= 0.70
     Davidson diagonalization with overlap
     ethr =  1.00E-02,  avg # of iterations = 10.6

     Threshold (ethr) on eigenvalues was too large:
     Diagonalizing with lowered threshold

     Davidson diagonalization with overlap
     ethr =  4.18E-04,  avg # of iterations =  6.8

     negative rho (up, down):  7.371E-08 0.000E+00

     total cpu time spent up to now is       61.8 secs

     total energy              =    -357.10306481 Ry
     Harris-Foulkes estimate   =    -357.24083893 Ry
     estimated scf accuracy    <       0.20323074 Ry

     iteration #  2     ecut=    60.00 Ry     beta= 0.70
     Davidson diagonalization with overlap
     ethr =  3.91E-04,  avg # of iterations =  6.3

     negative rho (up, down):  3.630E-08 0.000E+00

     total cpu time spent up to now is       81.7 secs

     total energy              =    -356.98072544 Ry
     Harris-Foulkes estimate   =    -357.25724303 Ry
     estimated scf accuracy    <       0.77758457 Ry

     iteration #  3     ecut=    60.00 Ry     beta= 0.70
     Davidson diagonalization with overlap
     ethr =  3.91E-04,  avg # of iterations =  6.1

     negative rho (up, down):  2.314E-08 0.000E+00

     total cpu time spent up to now is      101.4 secs

     total energy              =    -356.45188805 Ry
     Harris-Foulkes estimate   =    -357.43786800 Ry
     estimated scf accuracy    <      22.04006448 Ry

     iteration #  4     ecut=    60.00 Ry     beta= 0.70
     Davidson diagonalization with overlap
     ethr =  3.91E-04,  avg # of iterations =  6.7

     negative rho (up, down):  1.088E-08 0.000E+00

     total cpu time spent up to now is      120.1 secs

     total energy              =    -357.14320273 Ry
     Harris-Foulkes estimate   =    -357.21298621 Ry
     estimated scf accuracy    <       0.26302079 Ry

     iteration #  5     ecut=    60.00 Ry     beta= 0.70
     Davidson diagonalization with overlap
     ethr =  3.91E-04,  avg # of iterations =  3.3

     total cpu time spent up to now is      133.0 secs

     total energy              =    -357.17217891 Ry
     Harris-Foulkes estimate   =    -357.18469043 Ry
     estimated scf accuracy    <       0.04050649 Ry

     iteration #  6     ecut=    60.00 Ry     beta= 0.70
     Davidson diagonalization with overlap
     ethr =  7.79E-05,  avg # of iterations =  3.7

     total cpu time spent up to now is      147.6 secs

     total energy              =    -357.17559587 Ry
     Harris-Foulkes estimate   =    -357.18391496 Ry
     estimated scf accuracy    <       0.04272252 Ry

     iteration #  7     ecut=    60.00 Ry     beta= 0.70
     Davidson diagonalization with overlap
     ethr =  7.79E-05,  avg # of iterations =  2.5

     total cpu time spent up to now is      159.4 secs

     total energy              =    -357.17917737 Ry
     Harris-Foulkes estimate   =    -357.18061130 Ry
     estimated scf accuracy    <       0.01466066 Ry

     iteration #  8     ecut=    60.00 Ry     beta= 0.70
     Davidson diagonalization with overlap
     ethr =  2.82E-05,  avg # of iterations =  2.3

     total cpu time spent up to now is      170.9 secs

     total energy              =    -357.17978687 Ry
     Harris-Foulkes estimate   =    -357.18007665 Ry
     estimated scf accuracy    <       0.00645726 Ry

     iteration #  9     ecut=    60.00 Ry     beta= 0.70
     Davidson diagonalization with overlap
     ethr =  1.24E-05,  avg # of iterations =  1.4

     total cpu time spent up to now is      181.3 secs

     total energy              =    -357.17976330 Ry
     Harris-Foulkes estimate   =    -357.17996677 Ry
     estimated scf accuracy    <       0.00514393 Ry

     iteration # 10     ecut=    60.00 Ry     beta= 0.70
     Davidson diagonalization with overlap
     ethr =  9.89E-06,  avg # of iterations =  1.3

     total cpu time spent up to now is      191.6 secs

     total energy              =    -357.17957640 Ry
     Harris-Foulkes estimate   =    -357.17979483 Ry
     estimated scf accuracy    <       0.00435747 Ry

     iteration # 11     ecut=    60.00 Ry     beta= 0.70
     Davidson diagonalization with overlap
     ethr =  8.38E-06,  avg # of iterations =  3.2

     total cpu time spent up to now is      203.9 secs

     total energy              =    -357.17953847 Ry
     Harris-Foulkes estimate   =    -357.17959536 Ry
     estimated scf accuracy    <       0.00347111 Ry

     iteration # 12     ecut=    60.00 Ry     beta= 0.70
     Davidson diagonalization with overlap
     ethr =  6.68E-06,  avg # of iterations =  3.2

     negative rho (up, down):  6.435E-07 0.000E+00

     total cpu time spent up to now is      216.9 secs

     total energy              =    -357.17837159 Ry
     Harris-Foulkes estimate   =    -357.17954489 Ry
     estimated scf accuracy    <       0.00318471 Ry

     iteration # 13     ecut=    60.00 Ry     beta= 0.70
     Davidson diagonalization with overlap
     ethr =  6.12E-06,  avg # of iterations =  7.5

     negative rho (up, down):  3.195E-07 0.000E+00

     total cpu time spent up to now is      235.4 secs

     total energy              =    -357.17865745 Ry
     Harris-Foulkes estimate   =    -357.17874622 Ry
     estimated scf accuracy    <       0.00048018 Ry

     iteration # 14     ecut=    60.00 Ry     beta= 0.70
     Davidson diagonalization with overlap
     ethr =  9.23E-07,  avg # of iterations =  5.0

     negative rho (up, down):  1.700E-07 0.000E+00

     total cpu time spent up to now is      250.2 secs

     total energy              =    -357.17868445 Ry
     Harris-Foulkes estimate   =    -357.17869032 Ry
     estimated scf accuracy    <       0.00005713 Ry

     iteration # 15     ecut=    60.00 Ry     beta= 0.70
     Davidson diagonalization with overlap
     ethr =  1.10E-07,  avg # of iterations =  2.7

     total cpu time spent up to now is      262.4 secs

     total energy              =    -357.17868466 Ry
     Harris-Foulkes estimate   =    -357.17868903 Ry
     estimated scf accuracy    <       0.00002304 Ry

     iteration # 16     ecut=    60.00 Ry     beta= 0.70
     Davidson diagonalization with overlap
     ethr =  4.43E-08,  avg # of iterations =  2.3

     total cpu time spent up to now is      273.5 secs

     total energy              =    -357.17868593 Ry
     Harris-Foulkes estimate   =    -357.17868669 Ry
     estimated scf accuracy    <       0.00000314 Ry

     iteration # 17     ecut=    60.00 Ry     beta= 0.70
     Davidson diagonalization with overlap
     ethr =  6.04E-09,  avg # of iterations =  3.4

     total cpu time spent up to now is      287.0 secs

     total energy              =    -357.17868655 Ry
     Harris-Foulkes estimate   =    -357.17868658 Ry
     estimated scf accuracy    <       0.00000019 Ry

     iteration # 18     ecut=    60.00 Ry     beta= 0.70
     Davidson diagonalization with overlap
     ethr =  3.75E-10,  avg # of iterations =  2.2

     total cpu time spent up to now is      298.8 secs

     total energy              =    -357.17868655 Ry
     Harris-Foulkes estimate   =    -357.17868658 Ry
     estimated scf accuracy    <       0.00000012 Ry

     iteration # 19     ecut=    60.00 Ry     beta= 0.70
     Davidson diagonalization with overlap
     ethr =  2.23E-10,  avg # of iterations =  2.3

     total cpu time spent up to now is      310.3 secs

     End of self-consistent calculation

          k = 0.0000 0.0000 0.0000 ( 13703 PWs)   bands (ev):

   -72.8801 -72.8801 -60.0001 -60.0001 -44.3161 -44.3161 -35.8165 -35.8165
   -34.5097 -34.5097 -34.3549 -34.3549 -33.3478 -33.3478 -33.1939 -33.1939
   -13.8050 -13.8050 -13.3660 -13.3660 -12.2256 -12.2256 -11.9762 -11.9762
    -5.5771  -5.5771  -4.8433  -4.8433  -2.0749  -2.0749  -1.9683  -1.9683
    -1.9059  -1.9059  -1.8212  -1.8212  -1.6911  -1.6911  -0.8622  -0.8622
    -0.8142  -0.8142  -0.7731  -0.7731  -0.5879  -0.5879  -0.5876  -0.5876
     0.5815   0.5815   1.2857   1.2857   3.4034   3.4034   3.4834   3.4834
     3.6714   3.6714   3.6719   3.6719   3.7200   3.7200

          k = 0.0556 0.0321 0.0000 ( 13715 PWs)   bands (ev):

   -72.8796 -72.8796 -59.9989 -59.9989 -44.3180 -44.3180 -35.8196 -35.8196
   -34.5108 -34.5108 -34.3631 -34.3631 -33.3491 -33.3490 -33.2016 -33.2016
   -13.7546 -13.7534 -13.3203 -13.3193 -12.2060 -12.2042 -11.9593 -11.9579
    -5.5183  -5.5168  -4.7897  -4.7888  -2.1465  -2.1463  -2.0492  -2.0479
    -1.8975  -1.8931  -1.8609  -1.8602  -1.7868  -1.7830  -1.1335  -1.1139
    -0.8923  -0.8884  -0.8179  -0.8146  -0.6349  -0.6282  -0.3564  -0.3365
     0.5695   0.5747   1.2167   1.2184   3.3655   3.3671   3.5192   3.5204
     3.5730   3.5818   3.6155   3.6291   3.6548   3.6650

          k = 0.1111 0.0642 0.0000 ( 13689 PWs)   bands (ev):

   -72.8781 -72.8781 -59.9956 -59.9956 -44.3235 -44.3235 -35.8286 -35.8286
   -34.5148 -34.5148 -34.3860 -34.3860 -33.3534 -33.3534 -33.2229 -33.2229
   -13.6054 -13.6029 -13.1854 -13.1835 -12.1465 -12.1431 -11.9083 -11.9057
    -5.3479  -5.3454  -4.6378  -4.6364  -2.4633  -2.4617  -2.3281  -2.3243
    -2.1430  -2.1332  -1.7486  -1.7482  -1.7214  -1.7200  -1.5664  -1.5474
    -1.0938  -1.0933  -1.0016  -1.0010  -0.5990  -0.5834  -0.1887  -0.1734
     0.5196   0.5239   0.9975   1.0033   3.2244   3.2411   3.2886   3.2924
     3.4314   3.4708   3.4977   3.5163   3.6961   3.7380

          k = 0.1667 0.0962 0.0000 ( 13679 PWs)   bands (ev):

   -72.8759 -72.8759 -59.9906 -59.9906 -44.3319 -44.3319 -35.8427 -35.8427
   -34.5243 -34.5242 -34.4172 -34.4172 -33.3628 -33.3627 -33.2521 -33.2521
   -13.3677 -13.3639 -12.9710 -12.9680 -12.0514 -12.0467 -11.8272 -11.8236
    -5.0931  -5.0906  -4.4240  -4.4233  -2.9353  -2.9322  -2.7012  -2.6940
    -2.4935  -2.4848  -2.0456  -2.0287  -1.5383  -1.5356  -1.5165  -1.5163
    -1.3649  -1.3641  -1.2787  -1.2767  -0.6307  -0.6189  -0.1968  -0.1895
     0.3781   0.3787   0.6406   0.6475   2.9469   2.9639   3.1731   3.1972
     3.2870   3.2923   3.3335   3.4587   3.6499   3.6516

          k = 0.2222 0.1283 0.0000 ( 13661 PWs)   bands (ev):

   -72.8731 -72.8731 -59.9844 -59.9844 -44.3422 -44.3422 -35.8604 -35.8604
   -34.5447 -34.5446 -34.4459 -34.4459 -33.3811 -33.3810 -33.2800 -33.2800
   -13.0587 -13.0536 -12.6934 -12.6893 -11.9280 -11.9223 -11.7227 -11.7184
    -4.8218  -4.8214  -4.2476  -4.2459  -3.4152  -3.4102  -3.0594  -3.0396
    -2.8539  -2.8519  -2.5230  -2.5039  -1.6701  -1.6684  -1.6191  -1.6186
    -1.2604  -1.2576  -1.2234  -1.2228  -0.7652  -0.7581  -0.3590  -0.3563
     0.1126   0.1135   0.2432   0.2435   2.7768   2.8010   3.0985   3.1015
     3.1860   3.1881   3.4292   3.4823   3.5583   3.6327

          k = 0.2778 0.1604 0.0000 ( 13643 PWs)   bands (ev):

   -72.8702 -72.8702 -59.9779 -59.9779 -44.3533 -44.3532 -35.8799 -35.8799
   -34.5789 -34.5788 -34.4634 -34.4634 -33.4104 -33.4103 -33.2985 -33.2985
   -12.7035 -12.6969 -12.3766 -12.3712 -11.7872 -11.7812 -11.6050 -11.6005
    -4.7035  -4.7004  -4.3064  -4.3052  -3.7193  -3.7020  -3.3594  -3.2825
    -3.1543  -3.1298  -2.9559  -2.9238  -1.9477  -1.9465  -1.9019  -1.9017
    -1.0366  -1.0333  -0.9527  -0.9494  -0.8979  -0.8849  -0.5881  -0.5852
    -0.1895  -0.1848  -0.0682  -0.0601   2.7884   2.8170   2.9631   2.9635
     3.2279   3.2490   3.4877   3.4944   3.7415   3.8468

          k = 0.3333 0.1925 0.0000 ( 13627 PWs)   bands (ev):

   -72.8674 -72.8674 -59.9717 -59.9717 -44.3637 -44.3636 -35.8987 -35.8987
   -34.6185 -34.6184 -34.4716 -34.4716 -33.4446 -33.4445 -33.3080 -33.3080
   -12.3364 -12.3287 -12.0533 -12.0467 -11.6442 -11.6387 -11.4878 -11.4837
    -4.9081  -4.9054  -4.5680  -4.5672  -3.8601  -3.7946  -3.6592  -3.5266
    -3.4193  -3.3902  -3.1025  -3.0703  -2.1849  -2.1839  -2.1412  -2.1409
    -1.1436  -1.1334  -0.8648  -0.8446  -0.7111  -0.7080  -0.6574  -0.6522
    -0.3291  -0.3252  -0.1956  -0.1867   2.8581   2.8628   2.9609   2.9849
     3.3132   3.3330   3.6036   3.6091   4.0299   4.1176

          k = 0.3889 0.2245 0.0000 ( 13599 PWs)   bands (ev):

   -72.8652 -72.8652 -59.9666 -59.9666 -44.3721 -44.3721 -35.9145 -35.9144
   -34.6532 -34.6532 -34.4753 -34.4753 -33.4749 -33.4749 -33.3124 -33.3124
   -12.0038 -11.9959 -11.7662 -11.7590 -11.5183 -11.5142 -11.3873 -11.3842
    -5.2421  -5.2401  -4.8359  -4.8352  -4.0772  -4.0377  -3.8807  -3.8295
    -3.5200  -3.5070  -3.1470  -3.1269  -2.3633  -2.3626  -2.3188  -2.3186
    -1.2454  -1.2317  -1.0115  -0.9971  -0.5609  -0.5592  -0.4599  -0.4575
    -0.2496  -0.2467  -0.1220  -0.1140   2.8562   2.8569   3.1506   3.1702
     3.4349   3.4460   3.8065   3.8177   4.2640   4.3429

          k = 0.4444 0.2566 0.0000 ( 13588 PWs)   bands (ev):

   -72.8637 -72.8637 -59.9633 -59.9633 -44.3777 -44.3777 -35.9249 -35.9249
   -34.6765 -34.6765 -34.4769 -34.4769 -33.4952 -33.4952 -33.3144 -33.3144
   -11.7628 -11.7571 -11.5638 -11.5582 -11.4309 -11.4290 -11.3194 -11.3177
    -5.4994  -5.4983  -5.0340  -5.0338  -4.2567  -4.2405  -4.0700  -4.0516
    -3.5672  -3.5576  -3.2114  -3.2020  -2.4732  -2.4729  -2.4278  -2.4277
    -1.2842  -1.2731  -1.1158  -1.1054  -0.4518  -0.4503  -0.3229  -0.3215
    -0.0801  -0.0765   0.0193   0.0263   2.8800   2.8802   3.3301   3.3377
     3.5604   3.5631   4.0364   4.0575   4.4019   4.4694

          k =-0.5000-0.2887 0.0000 ( 13592 PWs)   bands (ev):

   -72.8632 -72.8632 -59.9621 -59.9621 -44.3796 -44.3796 -35.9286 -35.9286
   -34.6847 -34.6847 -34.4773 -34.4773 -33.5023 -33.5023 -33.3149 -33.3149
   -11.6707 -11.6707 -11.4880 -11.4880 -11.3995 -11.3995 -11.2950 -11.2950
    -5.5942  -5.5942  -5.1072  -5.1072  -4.3181  -4.3181  -4.1348  -4.1348
    -3.5859  -3.5859  -3.2393  -3.2393  -2.5103  -2.5103  -2.4645  -2.4645
    -1.2844  -1.2844  -1.1513  -1.1513  -0.4115  -0.4115  -0.2740  -0.2740
     0.0175   0.0175   0.0802   0.0802   2.8949   2.8949   3.4070   3.4070
     3.6160   3.6160   4.1729   4.1729   4.4723   4.4723

          k = 0.1111 0.0000 0.0000 ( 13685 PWs)   bands (ev):

   -72.8786 -72.8786 -59.9967 -59.9967 -44.3218 -44.3216 -35.8258 -35.8255
   -34.5135 -34.5132 -34.3791 -34.3783 -33.3520 -33.3517 -33.2165 -33.2157
   -13.6550 -13.6521 -13.2299 -13.2282 -12.1661 -12.1632 -11.9251 -11.9228
    -5.4034  -5.4008  -4.6865  -4.6852  -2.3706  -2.3373  -2.2418  -2.2325
    -2.0536  -2.0442  -1.7981  -1.7881  -1.7822  -1.7357  -1.4365  -1.4116
    -1.0584  -1.0530  -0.9734  -0.9583  -0.5844  -0.5648  -0.2034  -0.1847
     0.5395   0.5458   1.0725   1.0776   3.2462   3.2749   3.3629   3.3652
     3.4867   3.5196   3.5255   3.5913   3.6083   3.6751

          k = 0.1667 0.0321 0.0000 ( 13676 PWs)   bands (ev):

   -72.8768 -72.8768 -59.9926 -59.9926 -44.3288 -44.3284 -35.8377 -35.8367
   -34.5201 -34.5194 -34.4071 -34.4049 -33.3588 -33.3581 -33.2428 -33.2405
   -13.4627 -13.4560 -13.0553 -13.0523 -12.0887 -12.0844 -11.8589 -11.8556
    -5.1895  -5.1848  -4.5006  -4.4991  -2.7731  -2.7337  -2.5636  -2.5536
    -2.3479  -2.3366  -1.8439  -1.8238  -1.6452  -1.6291  -1.6055  -1.5598
    -1.3473  -1.3462  -1.2868  -1.2529  -0.5268  -0.5044  -0.1217  -0.1090
     0.4442   0.4485   0.7794   0.7970   3.0402   3.0529   3.1335   3.1825
     3.3118   3.3591   3.3774   3.4510   3.5877   3.6694

          k = 0.2222 0.0642 0.0000 ( 13663 PWs)   bands (ev):

   -72.8743 -72.8743 -59.9870 -59.9870 -44.3384 -44.3376 -35.8540 -35.8521
   -34.5344 -34.5337 -34.4384 -34.4349 -33.3721 -33.3713 -33.2726 -33.2689
   -13.1912 -13.1788 -12.8094 -12.8045 -11.9791 -11.9737 -11.7658 -11.7617
    -4.9199  -4.9113  -4.2917  -4.2905  -3.2394  -3.2118  -2.9177  -2.9085
    -2.6823  -2.6705  -2.2895  -2.2698  -1.6879  -1.6820  -1.6433  -1.6153
    -1.4170  -1.3954  -1.3682  -1.3132  -0.5725  -0.5511  -0.1969  -0.1902
     0.2345   0.2434   0.3865   0.4350   2.7879   2.8061   3.0923   3.1291
     3.1745   3.2127   3.2924   3.4235   3.5361   3.6334

          k = 0.2778 0.0962 0.0000 ( 13668 PWs)   bands (ev):

   -72.8714 -72.8714 -59.9806 -59.9806 -44.3493 -44.3481 -35.8732 -35.8702
   -34.5618 -34.5610 -34.4614 -34.4579 -33.3956 -33.3952 -33.2961 -33.2921
   -12.8613 -12.8416 -12.5119 -12.5049 -11.8464 -11.8402 -11.6539 -11.6494
    -4.7044  -4.6882  -4.2158  -4.2127  -3.6194  -3.6118  -3.2090  -3.1729
    -3.0134  -3.0057  -2.7587  -2.7366  -1.9889  -1.9792  -1.9264  -1.9075
    -1.2278  -1.1584  -1.1159  -1.0723  -0.7186  -0.6962  -0.3985  -0.3952
    -0.0612  -0.0412   0.0293   0.1244   2.6826   2.7063   3.0271   3.0461
     3.0998   3.2261   3.4358   3.4800   3.5438   3.7126

          k = 0.3333 0.1283 0.0000 ( 13652 PWs)   bands (ev):

   -72.8686 -72.8686 -59.9742 -59.9742 -44.3602 -44.3586 -35.8928 -35.8888
   -34.6006 -34.5974 -34.4731 -34.4705 -33.4289 -33.4262 -33.3092 -33.3061
   -12.5021 -12.4738 -12.1909 -12.1816 -11.7034 -11.6969 -11.5353 -11.5308
    -4.7522  -4.7323  -4.4145  -4.4106  -3.7730  -3.7352  -3.5110  -3.4072
    -3.2835  -3.2569  -3.0756  -3.0419  -2.2190  -2.2106  -2.1493  -2.1423
    -1.1254  -0.9879  -0.9297  -0.9072  -0.8653  -0.8380  -0.6441  -0.6324
    -0.2488  -0.2387  -0.1495  -0.0300   2.7025   2.7356   2.9990   3.0300
     3.1431   3.3065   3.5422   3.6152   3.8025   3.9173

          k = 0.3889 0.1604 0.0000 ( 13615 PWs)   bands (ev):

   -72.8661 -72.8661 -59.9686 -59.9686 -44.3698 -44.3679 -35.9106 -35.9056
   -34.6390 -34.6337 -34.4784 -34.4767 -33.4626 -33.4576 -33.3155 -33.3133
   -12.1535 -12.1161 -11.8839 -11.8723 -11.5672 -11.5614 -11.4248 -11.4211
    -5.0459  -5.0419  -4.6816  -4.6790  -3.9544  -3.9025  -3.7768  -3.7038
    -3.4839  -3.4742  -3.1117  -3.0894  -2.3724  -2.3692  -2.3167  -2.3104
    -1.1629  -1.1025  -0.9853  -0.9020  -0.8266  -0.7885  -0.7329  -0.7225
    -0.2417  -0.2017  -0.1050   0.0131   2.7845   2.8176   3.0811   3.1109
     3.2850   3.4078   3.7339   3.7756   4.0898   4.1725

          k = 0.4444 0.1925 0.0000 ( 13577 PWs)   bands (ev):

   -72.8642 -72.8642 -59.9644 -59.9644 -44.3770 -44.3748 -35.9240 -35.9183
   -34.6688 -34.6619 -34.4808 -34.4797 -33.4887 -33.4821 -33.3183 -33.3168
   -11.8669 -11.8214 -11.6370 -11.6240 -11.4587 -11.4541 -11.3390 -11.3366
    -5.3542  -5.3382  -4.9124  -4.9089  -4.1865  -4.1636  -4.0168  -3.9918
    -3.5409  -3.5209  -3.1719  -3.1568  -2.4650  -2.4615  -2.4291  -2.4203
    -1.2433  -1.2179  -1.0671  -1.0376  -0.8329  -0.6922  -0.6083  -0.5980
    -0.1282  -0.0507   0.0581   0.1654   2.8715   2.8745   3.2430   3.2673
     3.4902   3.5001   3.9170   4.0114   4.3294   4.3998

          k = 0.5000 0.2245 0.0000 ( 13567 PWs)   bands (ev):

   -72.8632 -72.8632 -59.9621 -59.9621 -44.3808 -44.3784 -35.9313 -35.9252
   -34.6848 -34.6772 -34.4817 -34.4809 -33.5028 -33.4954 -33.3194 -33.3182
   -11.7007 -11.6501 -11.4971 -11.4851 -11.3982 -11.3954 -11.2921 -11.2910
    -5.5375  -5.5100  -5.0483  -5.0409  -4.3242  -4.3121  -4.1584  -4.1508
    -3.5808  -3.5625  -3.2297  -3.2169  -2.5088  -2.4999  -2.4847  -2.4783
    -1.2865  -1.2761  -1.1327  -1.1180  -0.7864  -0.6233  -0.5147  -0.5092
    -0.0210   0.0776   0.1908   0.2956   2.8917   2.9209   3.3644   3.4270
     3.5424   3.6643   4.0189   4.2697   4.4834   4.5322

          k = 0.2222 0.0000 0.0000 ( 13685 PWs)   bands (ev):

   -72.8746 -72.8746 -59.9878 -59.9878 -44.3370 -44.3360 -35.8518 -35.8492
   -34.5310 -34.5298 -34.4359 -34.4308 -33.3691 -33.3677 -33.2701 -33.2650
   -13.2370 -13.2210 -12.8492 -12.8437 -11.9965 -11.9911 -11.7804 -11.7764
    -4.9549  -4.9437  -4.3100  -4.3083  -3.1717  -3.1266  -2.8609  -2.8519
    -2.5909  -2.5725  -2.1504  -2.1202  -1.7943  -1.7789  -1.7250  -1.6836
    -1.4968  -1.4559  -1.4209  -1.3610  -0.4454  -0.4152  -0.0927  -0.0849
     0.2795   0.2901   0.4505   0.5103   2.7841   2.7984   3.0299   3.0918
     3.1841   3.2233   3.2418   3.3563   3.5254   3.6050

          k = 0.2778 0.0321 0.0000 ( 13670 PWs)   bands (ev):

   -72.8721 -72.8721 -59.9820 -59.9820 -44.3471 -44.3454 -35.8696 -35.8650
   -34.5511 -34.5508 -34.4620 -34.4557 -33.3864 -33.3861 -33.2963 -33.2894
   -12.9443 -12.9154 -12.5828 -12.5740 -11.8769 -11.8704 -11.6790 -11.6745
    -4.7133  -4.6893  -4.1660  -4.1617  -3.5437  -3.5275  -3.1174  -3.1083
    -2.8604  -2.8400  -2.5541  -2.5347  -2.2179  -2.1897  -2.0665  -2.0358
    -1.3958  -1.2972  -1.2428  -1.1910  -0.4709  -0.4352  -0.1973  -0.1904
     0.0221   0.0606   0.1094   0.2484   2.5916   2.6088   2.9530   3.0377
     3.1085   3.1748   3.2552   3.3667   3.4951   3.6829

          k = 0.3333 0.0642 0.0000 ( 13644 PWs)   bands (ev):

   -72.8693 -72.8693 -59.9758 -59.9758 -44.3579 -44.3553 -35.8889 -35.8822
   -34.5850 -34.5804 -34.4781 -34.4730 -33.4150 -33.4115 -33.3139 -33.3078
   -12.6089 -12.5643 -12.2797 -12.2668 -11.7403 -11.7329 -11.5645 -11.5598
    -4.6314  -4.5905  -4.2626  -4.2583  -3.7164  -3.6959  -3.3298  -3.2760
    -3.1344  -3.1240  -3.0175  -2.9928  -2.4714  -2.4521  -2.2565  -2.2452
    -1.3829  -1.2249  -1.1525  -1.1282  -0.6123  -0.5807  -0.4223  -0.4109
    -0.1691  -0.1250  -0.0808   0.1083   2.5365   2.5575   2.9307   3.0405
     3.1233   3.2155   3.4483   3.5241   3.6071   3.7939

          k = 0.3889 0.0962 0.0000 ( 13609 PWs)   bands (ev):

   -72.8667 -72.8667 -59.9700 -59.9700 -44.3680 -44.3647 -35.9074 -35.8987
   -34.6231 -34.6140 -34.4863 -34.4832 -33.4484 -33.4401 -33.3233 -33.3191
   -12.2644 -12.2022 -11.9716 -11.9545 -11.6013 -11.5935 -11.4498 -11.4456
    -4.8259  -4.7983  -4.5042  -4.4952  -3.8030  -3.7473  -3.6747  -3.5999
    -3.4406  -3.4342  -3.0802  -3.0630  -2.5743  -2.5664  -2.3672  -2.3533
    -1.4457  -1.2439  -1.1723  -1.1559  -0.8168  -0.7946  -0.6706  -0.6589
    -0.1659  -0.1411  -0.0708   0.1205   2.6312   2.6607   3.0370   3.1192
     3.1915   3.3114   3.7132   3.7548   3.8055   3.9328

          k = 0.4444 0.1283 0.0000 ( 13595 PWs)   bands (ev):

   -72.8646 -72.8646 -59.9653 -59.9653 -44.3763 -44.3723 -35.9228 -35.9124
   -34.6563 -34.6435 -34.4905 -34.4888 -33.4778 -33.4656 -33.3280 -33.3254
   -11.9551 -11.8754 -11.6997 -11.6790 -11.4787 -11.4711 -11.3509 -11.3478
    -5.1123  -5.1008  -4.7185  -4.7173  -4.0962  -4.0765  -3.9743  -3.9543
    -3.4959  -3.4679  -3.1109  -3.0925  -2.6016  -2.5906  -2.4311  -2.4084
    -1.4697  -1.2520  -1.1633  -1.1432  -1.0152  -1.0017  -0.8809  -0.8658
    -0.0511  -0.0326   0.0744   0.2468   2.8109   2.8290   3.1939   3.2060
     3.3717   3.4292   3.9068   3.9597   4.0718   4.1487

          k = 0.5000 0.1604 0.0000 ( 13577 PWs)   bands (ev):

   -72.8632 -72.8632 -59.9622 -59.9621 -44.3817 -44.3773 -35.9330 -35.9215
   -34.6785 -34.6633 -34.4925 -34.4918 -33.4976 -33.4828 -33.3302 -33.3286
   -11.7338 -11.6402 -11.5098 -11.4878 -11.3930 -11.3872 -11.2839 -11.2819
    -5.3499  -5.3066  -4.8798  -4.8682  -4.3307  -4.3102  -4.2031  -4.1945
    -3.5430  -3.5080  -3.1852  -3.1628  -2.5901  -2.5692  -2.4633  -2.4348
    -1.4420  -1.2575  -1.2237  -1.1594  -1.0769  -1.0389  -1.0054  -0.9950
     0.0752   0.1228   0.2492   0.4120   2.8800   2.9202   3.3293   3.4123
     3.4700   3.6002   3.9602   4.2146   4.3122   4.4167

          k = 0.5556 0.1925 0.0000 ( 13576 PWs)   bands (ev):

   -72.8627 -72.8627 -59.9611 -59.9611 -44.3836 -44.3791 -35.9366 -35.9247
   -34.6862 -34.6703 -34.4931 -34.4927 -33.5045 -33.4889 -33.3309 -33.3296
   -11.6519 -11.5527 -11.4410 -11.4202 -11.3616 -11.3580 -11.2602 -11.2587
    -5.4375  -5.3820  -4.9388  -4.9230  -4.4152  -4.3916  -4.2834  -4.2785
    -3.5710  -3.5345  -3.2223  -3.1984  -2.5774  -2.5502  -2.4753  -2.4439
    -1.4281  -1.3029  -1.2667  -1.1643  -1.0816  -1.0615  -1.0122  -1.0019
     0.1389   0.1967   0.3302   0.4922   2.8713   2.9288   3.4193   3.4561
     3.5510   3.6853   3.9798   4.3730   4.4383   4.5151

          k = 0.3333-0.0000 0.0000 ( 13649 PWs)   bands (ev):

   -72.8696 -72.8696 -59.9764 -59.9764 -44.3571 -44.3542 -35.8875 -35.8799
   -34.5784 -34.5736 -34.4810 -34.4749 -33.4091 -33.4056 -33.3167 -33.3092
   -12.6455 -12.5953 -12.3102 -12.2960 -11.7528 -11.7451 -11.5743 -11.5696
    -4.5861  -4.5375  -4.1974  -4.1832  -3.7065  -3.6772  -3.2380  -3.2061
    -3.0628  -3.0566  -2.9374  -2.9277  -2.6511  -2.6233  -2.3296  -2.3176
    -1.4949  -1.3281  -1.2526  -1.2303  -0.4808  -0.4358  -0.3227  -0.3008
    -0.1426  -0.0795  -0.0574   0.1576   2.4682   2.4861   2.8732   3.0049
     3.1377   3.1995   3.3334   3.4155   3.6084   3.7756

          k = 0.3889 0.0321 0.0000 ( 13643 PWs)   bands (ev):

   -72.8671 -72.8671 -59.9708 -59.9708 -44.3671 -44.3630 -35.9056 -35.8949
   -34.6118 -34.6005 -34.4935 -34.4897 -33.4380 -33.4280 -33.3304 -33.3251
   -12.3226 -12.2477 -12.0180 -11.9979 -11.6187 -11.6097 -11.4622 -11.4578
    -4.6718  -4.6151  -4.3778  -4.3664  -3.6738  -3.6346  -3.5605  -3.5269
    -3.4145  -3.3995  -3.0795  -3.0725  -2.7513  -2.7473  -2.4241  -2.4129
    -1.7083  -1.5078  -1.4464  -1.4264  -0.6282  -0.5965  -0.5293  -0.5055
    -0.1585  -0.0939  -0.0656   0.1709   2.5192   2.5383   2.9652   3.0959
     3.1958   3.2597   3.5301   3.5912   3.7908   3.8806

          k = 0.4444 0.0642 0.0000 ( 13597 PWs)   bands (ev):

   -72.8648 -72.8648 -59.9658 -59.9658 -44.3759 -44.3707 -35.9218 -35.9084
   -34.6439 -34.6264 -34.5012 -34.5001 -33.4668 -33.4501 -33.3387 -33.3362
   -12.0129 -11.9121 -11.7413 -11.7158 -11.4905 -11.4807 -11.3568 -11.3532
    -4.8716  -4.8566  -4.5388  -4.5323  -4.0147  -4.0049  -3.9228  -3.9090
    -3.4336  -3.4133  -3.0527  -3.0339  -2.7391  -2.7259  -2.4511  -2.4245
    -1.9052  -1.7093  -1.6175  -1.5876  -0.8768  -0.8665  -0.7419  -0.7317
    -0.0563  -0.0190   0.0500   0.2708   2.7134   2.7316   3.1590   3.2252
     3.2981   3.3430   3.7628   3.7853   3.9524   4.0266

          k = 0.5000 0.0962 0.0000 ( 13578 PWs)   bands (ev):

   -72.8632 -72.8632 -59.9622 -59.9622 -44.3824 -44.3765 -35.9340 -35.9185
   -34.6687 -34.6466 -34.5067 -34.5059 -33.4892 -33.4676 -33.3434 -33.3430
   -11.7619 -11.6383 -11.5215 -11.4928 -11.3869 -11.3786 -11.2743 -11.2717
    -5.0824  -5.0454  -4.6599  -4.6502  -4.3461  -4.3206  -4.2368  -4.2277
    -3.4552  -3.4130  -3.1070  -3.0774  -2.6900  -2.6632  -2.4482  -2.4040
    -1.9771  -1.7955  -1.6566  -1.6296  -1.1322  -1.1255  -0.9412  -0.9347
     0.1090   0.1198   0.2393   0.4470   2.8303   2.8596   3.2935   3.3167
     3.4289   3.5507   3.9224   3.9280   4.0404   4.3389

          k = 0.5556 0.1283 0.0000 ( 13567 PWs)   bands (ev):

   -72.8623 -72.8623 -59.9602 -59.9602 -44.3859 -44.3796 -35.9405 -35.9239
   -34.6821 -34.6575 -34.5099 -34.5080 -33.5015 -33.4771 -33.3463 -33.3455
   -11.6180 -11.4802 -11.3985 -11.3731 -11.3255 -11.3231 -11.2292 -11.2268
    -5.2130  -5.1418  -4.7279  -4.7067  -4.5228  -4.4896  -4.4042  -4.3974
    -3.5191  -3.4708  -3.1846  -3.1530  -2.6265  -2.5831  -2.4406  -2.3824
    -1.9700  -1.7963  -1.6498  -1.6247  -1.2952  -1.2884  -1.0684  -1.0623
     0.2425   0.2566   0.4006   0.6087   2.7809   2.8287   3.2779   3.4519
     3.5600   3.7089   3.9982   4.0537   4.1565   4.5633

          k = 0.4444 0.0000 0.0000 ( 13607 PWs)   bands (ev):

   -72.8649 -72.8649 -59.9660 -59.9660 -44.3757 -44.3702 -35.9214 -35.9069
   -34.6385 -34.6189 -34.5062 -34.5056 -33.4618 -33.4433 -33.3436 -33.3415
   -12.0330 -11.9251 -11.7558 -11.7287 -11.4943 -11.4838 -11.3585 -11.3547
    -4.7715  -4.7372  -4.4655  -4.4543  -3.9922  -3.9813  -3.8888  -3.8721
    -3.3923  -3.3850  -3.0386  -3.0302  -2.7713  -2.7548  -2.4696  -2.4340
    -2.0762  -1.9016  -1.8376  -1.8074  -0.8068  -0.7990  -0.6790  -0.6681
    -0.0697  -0.0130   0.0348   0.2740   2.6678   2.6848   3.1423   3.2458
     3.2804   3.2931   3.6550   3.6780   3.9582   4.0211

          k = 0.5000 0.0321 0.0000 ( 13607 PWs)   bands (ev):

   -72.8632 -72.8632 -59.9622 -59.9622 -44.3828 -44.3760 -35.9343 -35.9167
   -34.6611 -34.6337 -34.5187 -34.5155 -33.4825 -33.4557 -33.3547 -33.3529
   -11.7779 -11.6393 -11.5283 -11.4966 -11.3830 -11.3732 -11.2680 -11.2651
    -4.8588  -4.8458  -4.4997  -4.4950  -4.3627  -4.3367  -4.2477  -4.2344
    -3.3122  -3.2809  -3.0269  -3.0094  -2.7470  -2.7025  -2.5300  -2.4076
    -2.2872  -2.2379  -2.1003  -2.0741  -1.0721  -1.0609  -0.8788  -0.8734
     0.0911   0.1304   0.2146   0.4505   2.7792   2.8013   3.2239   3.2423
     3.4338   3.5534   3.7191   3.7460   4.0258   4.3260

          k = 0.5556 0.0642 0.0000 ( 13563 PWs)   bands (ev):

   -72.8621 -72.8621 -59.9596 -59.9596 -44.3874 -44.3799 -35.9428 -35.9231
   -34.6761 -34.6433 -34.5272 -34.5213 -33.4966 -33.4639 -33.3631 -33.3584
   -11.5989 -11.4378 -11.3717 -11.3449 -11.2989 -11.2978 -11.2062 -11.2033
    -4.9345  -4.8734  -4.6283  -4.5938  -4.4922  -4.4800  -4.4672  -4.4496
    -3.3983  -3.3614  -3.1177  -3.0801  -2.7553  -2.6265  -2.5496  -2.4440
    -2.2927  -2.2739  -2.1862  -2.1472  -1.3025  -1.2852  -1.0727  -1.0663
     0.2835   0.3127   0.4318   0.6793   2.6768   2.7073   3.1078   3.2249
     3.6470   3.7330   3.7897   3.8602   4.1732   4.4757

          k = 0.6111 0.0962 0.0000 ( 13550 PWs)   bands (ev):

   -72.8617 -72.8617 -59.9587 -59.9587 -44.3889 -44.3812 -35.9457 -35.9253
   -34.6814 -34.6466 -34.5302 -34.5232 -33.5015 -33.4668 -33.3660 -33.3602
   -11.5335 -11.3634 -11.3152 -11.3012 -11.2727 -11.2593 -11.1842 -11.1808
    -4.9594  -4.8771  -4.7114  -4.6717  -4.5725  -4.5615  -4.4600  -4.4296
    -3.4677  -3.4314  -3.1989  -3.1624  -2.7201  -2.5524  -2.5215  -2.4928
    -2.2651  -2.2270  -2.2102  -2.1640  -1.3943  -1.3751  -1.1596  -1.1524
     0.3785   0.4062   0.5397   0.7992   2.5956   2.6238   3.0131   3.1495
     3.7389   3.7682   3.8627   3.9736   4.2560   4.4839

          k = 0.5556-0.0000 0.0000 ( 13577 PWs)   bands (ev):

   -72.8620 -72.8620 -59.9594 -59.9594 -44.3879 -44.3800 -35.9435 -35.9228
   -34.6732 -34.6363 -34.5353 -34.5268 -33.4941 -33.4573 -33.3710 -33.3637
   -11.5929 -11.4244 -11.3625 -11.3354 -11.2892 -11.2886 -11.1976 -11.1945
    -4.7868  -4.7475  -4.6586  -4.6242  -4.5172  -4.5046  -4.3605  -4.3424
    -3.2904  -3.2409  -3.0434  -3.0059  -2.9294  -2.8223  -2.6755  -2.5664
    -2.4827  -2.4789  -2.2631  -2.2109  -1.3000  -1.2787  -1.0773  -1.0680
     0.2933   0.3393   0.4393   0.7051   2.6319   2.6557   3.0363   3.1320
     3.6217   3.6509   3.7583   3.8710   4.1766   4.4031

          k = 0.6111 0.0321 0.0000 ( 13549 PWs)   bands (ev):

   -72.8614 -72.8614 -59.9580 -59.9580 -44.3906 -44.3820 -35.9484 -35.9259
   -34.6795 -34.6364 -34.5454 -34.5329 -33.5003 -33.4570 -33.3810 -33.3694
   -11.4893 -11.3039 -11.2719 -11.2669 -11.2437 -11.2179 -11.1586 -11.1542
    -4.8287  -4.7839  -4.6885  -4.6587  -4.6520  -4.5982  -4.2029  -4.1686
    -3.5343  -3.3558  -3.2347  -3.2173  -2.9410  -2.9066  -2.7829  -2.7404
    -2.4113  -2.3791  -2.2110  -2.1830  -1.4387  -1.4142  -1.2551  -1.2402
     0.4685   0.5268   0.6384   0.9483   2.4476   2.4582   2.8036   2.8838
     3.6129   3.6306   3.9791   4.1125   4.2799   4.3641

          k = 0.6667-0.0000 0.0000 ( 13548 PWs)   bands (ev):

   -72.8611 -72.8611 -59.9574 -59.9574 -44.3917 -44.3828 -35.9503 -35.9269
   -34.6803 -34.6324 -34.5534 -34.5373 -33.5015 -33.4529 -33.3890 -33.3735
   -11.4505 -11.2487 -11.2481 -11.2455 -11.2196 -11.1858 -11.1415 -11.1356
    -4.8947  -4.8487  -4.7332  -4.7197  -4.4809  -4.4413  -3.9799  -3.9412
    -3.7829  -3.5039  -3.3653  -3.3643  -3.0595  -2.9483  -2.9141  -2.8978
    -2.3303  -2.2731  -2.2311  -2.1885  -1.4368  -1.4211  -1.3954  -1.3660
     0.5586   0.6345   0.7414   1.0965   2.3306   2.3334   2.6520   2.6862
     3.5636   3.5829   4.1020   4.2469   4.2796   4.3054

     the Fermi energy is     1.3417 ev

!    total energy              =    -357.17868655 Ry
     Harris-Foulkes estimate   =    -357.17868656 Ry
     estimated scf accuracy    <          7.3E-09 Ry

     The total energy is the sum of the following terms:

     one-electron contribution =   -3890.21351788 Ry
     hartree contribution      =    1945.44696043 Ry
     xc contribution           =     -48.58045407 Ry
     ewald contribution        =    1636.16777829 Ry
     smearing contrib. (-TS)   =       0.00054667 Ry

     convergence has been achieved in  19 iterations

     Forces acting on atoms (cartesian axes, Ry/au):

     atom    1 type  3   force =     0.00000000    0.00000000   -0.00103443
     atom    2 type  2   force =     0.00000000    0.00000000    0.01946920
     atom    3 type  2   force =     0.00000000    0.00000000   -0.01689835
     atom    4 type  1   force =     0.00000000    0.00000000    0.00081928
     atom    5 type  2   force =     0.00000000    0.00000000    0.02014294
     atom    6 type  2   force =     0.00000000    0.00000000   -0.02249864

     Total force =     0.039727     Total SCF correction =     0.000429

     BFGS Geometry Optimization

     number of scf cycles    =   1
     number of bfgs steps    =   0

     energy   new            =    -357.1786865537 Ry

     new trust radius        =       0.0224986407 bohr
     new conv_thr            =       0.0000000100 Ry


ATOMIC_POSITIONS (crystal)
Mo       0.000000000   0.000000000   0.395172312    0   0   1
S        0.333333333   0.666666667   0.342150957    0   0   1
S        0.333333333   0.666666667   0.448277508    0   0   1
W        0.333333333   0.666666667   0.605145898    0   0   1
S        0.000000000   0.000000000   0.551781122    0   0   1
S        0.000000000   0.000000000   0.658438496    0   0   1



     Writing output data file MoS2_WS2_da_0.000_db_0.000.save
     NEW-OLD atomic charge density approx. for the potential

     negative rho (up, down):  1.176E-06 0.000E+00

     total cpu time spent up to now is      315.2 secs

     Self-consistent Calculation

     iteration #  1     ecut=    60.00 Ry     beta= 0.70
     Davidson diagonalization with overlap
     ethr =  1.00E-06,  avg # of iterations =  4.0

     negative rho (up, down):  2.716E-07 0.000E+00

     total cpu time spent up to now is      334.3 secs

     total energy              =    -357.17991566 Ry
     Harris-Foulkes estimate   =    -357.17997375 Ry
     estimated scf accuracy    <       0.00008593 Ry

     iteration #  2     ecut=    60.00 Ry     beta= 0.70
     Davidson diagonalization with overlap
     ethr =  1.65E-07,  avg # of iterations =  4.2

     negative rho (up, down):  2.062E-07 0.000E+00

     total cpu time spent up to now is      350.4 secs

     total energy              =    -357.17986927 Ry
     Harris-Foulkes estimate   =    -357.18003445 Ry
     estimated scf accuracy    <       0.00052090 Ry

     iteration #  3     ecut=    60.00 Ry     beta= 0.70
     Davidson diagonalization with overlap
     ethr =  1.65E-07,  avg # of iterations =  3.2

     negative rho (up, down):  6.711E-08 0.000E+00

     total cpu time spent up to now is      364.4 secs

     total energy              =    -357.17994987 Ry
     Harris-Foulkes estimate   =    -357.17995751 Ry
     estimated scf accuracy    <       0.00002013 Ry

     iteration #  4     ecut=    60.00 Ry     beta= 0.70
     Davidson diagonalization with overlap
     ethr =  3.87E-08,  avg # of iterations =  3.5

     negative rho (up, down):  2.571E-08 0.000E+00

     total cpu time spent up to now is      378.8 secs

     total energy              =    -357.17994768 Ry
     Harris-Foulkes estimate   =    -357.17996236 Ry
     estimated scf accuracy    <       0.00006992 Ry

     iteration #  5     ecut=    60.00 Ry     beta= 0.70
     Davidson diagonalization with overlap
     ethr =  3.87E-08,  avg # of iterations =  3.1

     negative rho (up, down):  1.116E-08 0.000E+00

     total cpu time spent up to now is      391.8 secs

     total energy              =    -357.17995421 Ry
     Harris-Foulkes estimate   =    -357.17995575 Ry
     estimated scf accuracy    <       0.00000560 Ry

     iteration #  6     ecut=    60.00 Ry     beta= 0.70
     Davidson diagonalization with overlap
     ethr =  1.08E-08,  avg # of iterations =  2.2

     total cpu time spent up to now is      403.8 secs

     total energy              =    -357.17995503 Ry
     Harris-Foulkes estimate   =    -357.17995519 Ry
     estimated scf accuracy    <       0.00000053 Ry

     iteration #  7     ecut=    60.00 Ry     beta= 0.70
     Davidson diagonalization with overlap
     ethr =  1.01E-09,  avg # of iterations =  2.4

     total cpu time spent up to now is      416.0 secs

     total energy              =    -357.17995510 Ry
     Harris-Foulkes estimate   =    -357.17995513 Ry
     estimated scf accuracy    <       0.00000007 Ry

     iteration #  8     ecut=    60.00 Ry     beta= 0.70
     Davidson diagonalization with overlap
     ethr =  1.36E-10,  avg # of iterations =  3.2

     total cpu time spent up to now is      429.7 secs

     total energy              =    -357.17995511 Ry
     Harris-Foulkes estimate   =    -357.17995514 Ry
     estimated scf accuracy    <       0.00000014 Ry

     iteration #  9     ecut=    60.00 Ry     beta= 0.70
     Davidson diagonalization with overlap
     ethr =  1.36E-10,  avg # of iterations =  3.1

     total cpu time spent up to now is      442.1 secs

     End of self-consistent calculation

          k = 0.0000 0.0000 0.0000 ( 13703 PWs)   bands (ev):

   -72.8786 -72.8786 -59.9997 -59.9997 -44.3186 -44.3186 -35.8203 -35.8203
   -34.5158 -34.5158 -34.3629 -34.3629 -33.3521 -33.3521 -33.1997 -33.1997
   -13.8564 -13.8564 -13.4018 -13.4018 -12.2286 -12.2286 -11.9825 -11.9825
    -5.6001  -5.6001  -4.8777  -4.8777  -2.1502  -2.1502  -2.0281  -2.0281
    -1.9654  -1.9654  -1.8898  -1.8898  -1.6781  -1.6781  -0.9081  -0.9081
    -0.8683  -0.8683  -0.8187  -0.8187  -0.6473  -0.6473  -0.5744  -0.5744
     0.6128   0.6128   1.3063   1.3063   3.4050   3.4050   3.4858   3.4858
     3.6850   3.6850   3.6947   3.6947   3.7299   3.7299

          k = 0.0556 0.0321 0.0000 ( 13715 PWs)   bands (ev):

   -72.8781 -72.8781 -59.9985 -59.9985 -44.3205 -44.3205 -35.8235 -35.8234
   -34.5169 -34.5169 -34.3712 -34.3712 -33.3534 -33.3533 -33.2075 -33.2075
   -13.8056 -13.8046 -13.3559 -13.3551 -12.2094 -12.2077 -11.9660 -11.9646
    -5.5415  -5.5401  -4.8245  -4.8236  -2.2211  -2.2210  -2.1081  -2.1071
    -1.9470  -1.9454  -1.9122  -1.9112  -1.8130  -1.8038  -1.1672  -1.1478
    -0.9372  -0.9335  -0.8693  -0.8670  -0.6799  -0.6724  -0.3577  -0.3391
     0.5996   0.6044   1.2361   1.2380   3.3676   3.3698   3.5260   3.5279
     3.5946   3.6044   3.6351   3.6477   3.6674   3.6791

          k = 0.1111 0.0642 0.0000 ( 13689 PWs)   bands (ev):

   -72.8766 -72.8766 -59.9952 -59.9952 -44.3260 -44.3260 -35.8325 -35.8325
   -34.5209 -34.5209 -34.3942 -34.3942 -33.3577 -33.3577 -33.2289 -33.2289
   -13.6555 -13.6535 -13.2206 -13.2190 -12.1516 -12.1484 -11.9162 -11.9137
    -5.3720  -5.3695  -4.6737  -4.6725  -2.5352  -2.5341  -2.3838  -2.3808
    -2.1477  -2.1372  -1.8101  -1.8097  -1.7922  -1.7918  -1.6012  -1.5827
    -1.1394  -1.1388  -1.0582  -1.0582  -0.6213  -0.6058  -0.1838  -0.1692
     0.5454   0.5491   1.0139   1.0198   3.2388   3.2480   3.3075   3.3114
     3.4536   3.4927   3.5196   3.5349   3.7051   3.7444

          k = 0.1667 0.0962 0.0000 ( 13679 PWs)   bands (ev):

   -72.8743 -72.8743 -59.9902 -59.9902 -44.3345 -44.3344 -35.8467 -35.8467
   -34.5305 -34.5305 -34.4254 -34.4254 -33.3672 -33.3671 -33.2582 -33.2582
   -13.4165 -13.4136 -13.0056 -13.0031 -12.0591 -12.0547 -11.8370 -11.8335
    -5.1191  -5.1166  -4.4627  -4.4622  -3.0013  -2.9992  -2.7504  -2.7445
    -2.5084  -2.4990  -2.0805  -2.0637  -1.6026  -1.5997  -1.5813  -1.5796
    -1.4121  -1.4103  -1.3370  -1.3365  -0.6365  -0.6247  -0.1862  -0.1791
     0.3958   0.3967   0.6523   0.6592   2.9736   2.9897   3.1868   3.2161
     3.3052   3.3119   3.3504   3.4765   3.6698   3.6727

          k = 0.2222 0.1283 0.0000 ( 13661 PWs)   bands (ev):

   -72.8716 -72.8716 -59.9840 -59.9840 -44.3449 -44.3448 -35.8646 -35.8645
   -34.5517 -34.5516 -34.4539 -34.4539 -33.3860 -33.3859 -33.2859 -33.2859
   -13.1062 -13.1021 -12.7276 -12.7240 -11.9393 -11.9341 -11.7350 -11.7309
    -4.8527  -4.8524  -4.2931  -4.2914  -3.4693  -3.4656  -3.0965  -3.0787
    -2.8758  -2.8728  -2.5569  -2.5380  -1.7179  -1.7156  -1.6767  -1.6754
    -1.3191  -1.3159  -1.2884  -1.2862  -0.7600  -0.7531  -0.3447  -0.3421
     0.1216   0.1222   0.2475   0.2475   2.8042   2.8280   3.1151   3.1167
     3.2094   3.2157   3.4396   3.4943   3.5741   3.6508

          k = 0.2778 0.1604 0.0000 ( 13643 PWs)   bands (ev):

   -72.8686 -72.8686 -59.9774 -59.9774 -44.3560 -44.3559 -35.8842 -35.8841
   -34.5867 -34.5867 -34.4707 -34.4707 -33.4160 -33.4159 -33.3040 -33.3040
   -12.7498 -12.7446 -12.4104 -12.4058 -11.8030 -11.7975 -11.6201 -11.6158
    -4.7465  -4.7438  -4.3584  -4.3571  -3.7519  -3.7355  -3.3846  -3.3092
    -3.1770  -3.1521  -2.9884  -2.9574  -1.9973  -1.9959  -1.9580  -1.9571
    -1.0726  -1.0706  -1.0011  -0.9986  -0.9095  -0.9000  -0.5730  -0.5706
    -0.1885  -0.1842  -0.0728  -0.0651   2.8135   2.8411   2.9728   2.9740
     3.2504   3.2694   3.5001   3.5082   3.7564   3.8622

          k = 0.3333 0.1925 0.0000 ( 13627 PWs)   bands (ev):

   -72.8659 -72.8659 -59.9711 -59.9711 -44.3664 -44.3664 -35.9032 -35.9031
   -34.6271 -34.6270 -34.4785 -34.4785 -33.4508 -33.4507 -33.3131 -33.3131
   -12.3820 -12.3760 -12.0871 -12.0815 -11.6649 -11.6601 -11.5055 -11.5017
    -4.9587  -4.9566  -4.6132  -4.6124  -3.8786  -3.8092  -3.6871  -3.5506
    -3.4423  -3.4114  -3.1311  -3.1001  -2.2365  -2.2356  -2.1955  -2.1949
    -1.1300  -1.1190  -0.8675  -0.8433  -0.7497  -0.7450  -0.6983  -0.6908
    -0.3358  -0.3323  -0.2069  -0.1984   2.8631   2.8666   2.9783   3.0027
     3.3221   3.3403   3.6163   3.6229   4.0490   4.1350

          k = 0.3889 0.2245 0.0000 ( 13599 PWs)   bands (ev):

   -72.8636 -72.8636 -59.9660 -59.9660 -44.3750 -44.3750 -35.9191 -35.9190
   -34.6624 -34.6623 -34.4819 -34.4819 -33.4815 -33.4814 -33.3173 -33.3173
   -12.0495 -12.0434 -11.8002 -11.7942 -11.5438 -11.5406 -11.4071 -11.4044
    -5.2883  -5.2869  -4.8732  -4.8725  -4.0930  -4.0521  -3.8994  -3.8467
    -3.5444  -3.5323  -3.1771  -3.1575  -2.4162  -2.4157  -2.3721  -2.3718
    -1.2276  -1.2136  -0.9962  -0.9812  -0.6010  -0.6000  -0.4980  -0.4958
    -0.2619  -0.2591  -0.1349  -0.1273   2.8510   2.8517   3.1625   3.1812
     3.4303   3.4408   3.8143   3.8268   4.2861   4.3622

          k = 0.4444 0.2566 0.0000 ( 13588 PWs)   bands (ev):

   -72.8621 -72.8621 -59.9627 -59.9627 -44.3806 -44.3806 -35.9296 -35.9296
   -34.6859 -34.6859 -34.4834 -34.4834 -33.5020 -33.5020 -33.3191 -33.3191
   -11.8092 -11.8050 -11.5980 -11.5935 -11.4604 -11.4592 -11.3405 -11.3392
    -5.5404  -5.5396  -5.0650  -5.0647  -4.2711  -4.2545  -4.0840  -4.0652
    -3.5942  -3.5848  -3.2448  -3.2355  -2.5268  -2.5266  -2.4807  -2.4806
    -1.2646  -1.2534  -1.0997  -1.0892  -0.4898  -0.4885  -0.3573  -0.3560
    -0.0903  -0.0866   0.0100   0.0168   2.8686   2.8689   3.3333   3.3402
     3.5455   3.5479   4.0379   4.0592   4.4250   4.4888

          k =-0.5000-0.2887 0.0000 ( 13592 PWs)   bands (ev):

   -72.8616 -72.8616 -59.9616 -59.9616 -44.3825 -44.3825 -35.9333 -35.9333
   -34.6942 -34.6942 -34.4838 -34.4838 -33.5092 -33.5092 -33.3196 -33.3196
   -11.7183 -11.7183 -11.5227 -11.5227 -11.4308 -11.4308 -11.3167 -11.3167
    -5.6333  -5.6333  -5.1356  -5.1356  -4.3318  -4.3318  -4.1473  -4.1473
    -3.6141  -3.6141  -3.2741  -3.2741  -2.5641  -2.5641  -2.5173  -2.5173
    -1.2640  -1.2640  -1.1355  -1.1355  -0.4486  -0.4486  -0.3075  -0.3075
     0.0087   0.0087   0.0737   0.0737   2.8813   2.8813   3.4056   3.4056
     3.5969   3.5969   4.1710   4.1710   4.4932   4.4932

          k = 0.1111 0.0000 0.0000 ( 13685 PWs)   bands (ev):

   -72.8771 -72.8771 -59.9963 -59.9963 -44.3243 -44.3241 -35.8297 -35.8294
   -34.5195 -34.5193 -34.3873 -34.3864 -33.3563 -33.3560 -33.2225 -33.2217
   -13.7054 -13.7028 -13.2652 -13.2637 -12.1707 -12.1679 -11.9326 -11.9304
    -5.4272  -5.4246  -4.7220  -4.7208  -2.4442  -2.4099  -2.2993  -2.2895
    -2.0551  -2.0452  -1.8630  -1.8574  -1.8420  -1.8085  -1.4701  -1.4454
    -1.1030  -1.0984  -1.0306  -1.0124  -0.6124  -0.5935  -0.2011  -0.1833
     0.5668   0.5725   1.0898   1.0952   3.2502   3.2802   3.3871   3.3884
     3.5069   3.5428   3.5477   3.5935   3.6305   3.6822

          k = 0.1667 0.0321 0.0000 ( 13676 PWs)   bands (ev):

   -72.8752 -72.8752 -59.9921 -59.9921 -44.3314 -44.3310 -35.8417 -35.8406
   -34.5263 -34.5256 -34.4154 -34.4131 -33.3632 -33.3624 -33.2489 -33.2466
   -13.5123 -13.5057 -13.0902 -13.0874 -12.0954 -12.0913 -11.8680 -11.8648
    -5.2146  -5.2098  -4.5381  -4.5367  -2.8427  -2.8027  -2.6165  -2.6065
    -2.3584  -2.3464  -1.8793  -1.8596  -1.7178  -1.6868  -1.6633  -1.6312
    -1.3921  -1.3911  -1.3433  -1.3067  -0.5403  -0.5189  -0.1146  -0.1024
     0.4653   0.4691   0.7929   0.8105   3.0667   3.0767   3.1423   3.1921
     3.3336   3.3800   3.3969   3.4726   3.5918   3.6873

          k = 0.2222 0.0642 0.0000 ( 13663 PWs)   bands (ev):

   -72.8727 -72.8727 -59.9865 -59.9865 -44.3410 -44.3402 -35.8582 -35.8562
   -34.5410 -34.5403 -34.4466 -34.4430 -33.3768 -33.3759 -33.2787 -33.2749
   -13.2398 -13.2273 -12.8438 -12.8392 -11.9890 -11.9838 -11.7770 -11.7731
    -4.9483  -4.9393  -4.3340  -4.3326  -3.3006  -3.2731  -2.9615  -2.9531
    -2.7007  -2.6880  -2.3246  -2.3052  -1.7349  -1.7260  -1.6929  -1.6691
    -1.4831  -1.4512  -1.4239  -1.3830  -0.5753  -0.5551  -0.1859  -0.1793
     0.2467   0.2553   0.3938   0.4417   2.8152   2.8331   3.1135   3.1478
     3.1912   3.2321   3.3029   3.4393   3.5521   3.6513

          k = 0.2778 0.0962 0.0000 ( 13668 PWs)   bands (ev):

   -72.8699 -72.8699 -59.9801 -59.9801 -44.3520 -44.3507 -35.8774 -35.8744
   -34.5694 -34.5684 -34.4690 -34.4655 -33.4009 -33.4004 -33.3018 -33.2978
   -12.9088 -12.8887 -12.5460 -12.5392 -11.8602 -11.8545 -11.6678 -11.6635
    -4.7415  -4.7244  -4.2670  -4.2640  -3.6627  -3.6562  -3.2384  -3.2040
    -3.0368  -3.0293  -2.7928  -2.7714  -2.0355  -2.0227  -1.9730  -1.9577
    -1.2870  -1.2087  -1.1669  -1.1362  -0.7142  -0.6940  -0.3852  -0.3819
    -0.0583  -0.0392   0.0280   0.1202   2.7087   2.7322   3.0416   3.0596
     3.1212   3.2515   3.4455   3.4903   3.5575   3.7293

          k = 0.3333 0.1283 0.0000 ( 13652 PWs)   bands (ev):

   -72.8670 -72.8670 -59.9737 -59.9737 -44.3630 -44.3613 -35.8973 -35.8931
   -34.6091 -34.6056 -34.4801 -34.4776 -33.4350 -33.4321 -33.3144 -33.3113
   -12.5490 -12.5199 -12.2250 -12.2158 -11.7219 -11.7160 -11.5518 -11.5477
    -4.8021  -4.7817  -4.4642  -4.4598  -3.7967  -3.7583  -3.5375  -3.4346
    -3.3064  -3.2792  -3.1063  -3.0741  -2.2653  -2.2549  -2.1955  -2.1905
    -1.1644  -1.0198  -0.9587  -0.9466  -0.8757  -0.8525  -0.6309  -0.6202
    -0.2583  -0.2475  -0.1597  -0.0464   2.7215   2.7555   3.0068   3.0405
     3.1594   3.3257   3.5499   3.6259   3.8182   3.9326

          k = 0.3889 0.1604 0.0000 ( 13615 PWs)   bands (ev):

   -72.8645 -72.8645 -59.9680 -59.9680 -44.3726 -44.3706 -35.9152 -35.9100
   -34.6482 -34.6425 -34.4851 -34.4835 -33.4692 -33.4639 -33.3204 -33.3182
   -12.2004 -12.1618 -11.9183 -11.9067 -11.5908 -11.5855 -11.4437 -11.4404
    -5.0952  -5.0915  -4.7227  -4.7201  -3.9730  -3.9190  -3.8008  -3.7259
    -3.5088  -3.4999  -3.1403  -3.1189  -2.4196  -2.4157  -2.3635  -2.3564
    -1.1665  -1.0904  -0.9954  -0.9007  -0.8335  -0.8085  -0.7618  -0.7533
    -0.2625  -0.2175  -0.1214  -0.0099   2.7916   2.8246   3.0875   3.1183
     3.2927   3.4146   3.7378   3.7803   4.1094   4.1901

          k = 0.4444 0.1925 0.0000 ( 13577 PWs)   bands (ev):

   -72.8626 -72.8626 -59.9638 -59.9638 -44.3798 -44.3776 -35.9288 -35.9228
   -34.6783 -34.6710 -34.4873 -34.4863 -33.4956 -33.4887 -33.3231 -33.3216
   -11.9145 -11.8672 -11.6719 -11.6586 -11.4869 -11.4826 -11.3597 -11.3576
    -5.3979  -5.3816  -4.9461  -4.9424  -4.2048  -4.1815  -4.0346  -4.0097
    -3.5676  -3.5475  -3.2037  -3.1889  -2.5148  -2.5107  -2.4744  -2.4654
    -1.2301  -1.2007  -1.0588  -1.0231  -0.8566  -0.7184  -0.6418  -0.6259
    -0.1486  -0.0662   0.0418   0.1438   2.8671   2.8700   3.2458   3.2704
     3.4858   3.4947   3.9143   4.0112   4.3515   4.4191

          k = 0.5000 0.2245 0.0000 ( 13567 PWs)   bands (ev):

   -72.8616 -72.8616 -59.9616 -59.9616 -44.3837 -44.3813 -35.9361 -35.9298
   -34.6945 -34.6865 -34.4882 -34.4874 -33.5099 -33.5021 -33.3241 -33.3229
   -11.7491 -11.6962 -11.5325 -11.5193 -11.4295 -11.4263 -11.3137 -11.3127
    -5.5773  -5.5492  -5.0772  -5.0696  -4.3419  -4.3295  -4.1739  -4.1664
    -3.6097  -3.5907  -3.2644  -3.2516  -2.5619  -2.5514  -2.5286  -2.5214
    -1.2682  -1.2559  -1.1203  -1.1034  -0.8144  -0.6480  -0.5450  -0.5367
    -0.0376   0.0650   0.1769   0.2772   2.8801   2.9100   3.3630   3.4258
     3.5252   3.6503   4.0147   4.2673   4.5052   4.5514

          k = 0.2222 0.0000 0.0000 ( 13685 PWs)   bands (ev):

   -72.8731 -72.8731 -59.9874 -59.9874 -44.3397 -44.3386 -35.8559 -35.8533
   -34.5374 -34.5363 -34.4442 -34.4390 -33.3737 -33.3723 -33.2763 -33.2710
   -13.2858 -13.2694 -12.8838 -12.8784 -12.0058 -12.0007 -11.7913 -11.7874
    -4.9825  -4.9707  -4.3512  -4.3494  -3.2353  -3.1902  -2.9075  -2.8985
    -2.6066  -2.5870  -2.1862  -2.1559  -1.8421  -1.8215  -1.7709  -1.7351
    -1.5630  -1.5111  -1.4761  -1.4307  -0.4517  -0.4229  -0.0836  -0.0758
     0.2929   0.3031   0.4586   0.5178   2.8112   2.8249   3.0461   3.1065
     3.2014   3.2394   3.2576   3.3733   3.5400   3.6140

          k = 0.2778 0.0321 0.0000 ( 13670 PWs)   bands (ev):

   -72.8705 -72.8705 -59.9816 -59.9816 -44.3498 -44.3480 -35.8738 -35.8691
   -34.5584 -34.5579 -34.4699 -34.4635 -33.3914 -33.3912 -33.3022 -33.2952
   -12.9923 -12.9625 -12.6172 -12.6082 -11.8898 -11.8836 -11.6922 -11.6880
    -4.7471  -4.7217  -4.2155  -4.2111  -3.5940  -3.5790  -3.1523  -3.1436
    -2.8828  -2.8607  -2.5915  -2.5734  -2.2609  -2.2290  -2.1059  -2.0790
    -1.4558  -1.3463  -1.2924  -1.2537  -0.4710  -0.4369  -0.1861  -0.1790
     0.0258   0.0633   0.1088   0.2450   2.6187   2.6357   2.9748   3.0554
     3.1231   3.1927   3.2616   3.3787   3.5070   3.6981

          k = 0.3333 0.0642 0.0000 ( 13644 PWs)   bands (ev):

   -72.8677 -72.8677 -59.9753 -59.9753 -44.3607 -44.3580 -35.8933 -35.8864
   -34.5933 -34.5883 -34.4853 -34.4803 -33.4210 -33.4170 -33.3193 -33.3132
   -12.6564 -12.6101 -12.3140 -12.3007 -11.7575 -11.7505 -11.5803 -11.5759
    -4.6784  -4.6354  -4.3159  -4.3128  -3.7470  -3.7263  -3.3571  -3.3044
    -3.1593  -3.1486  -3.0550  -3.0310  -2.5067  -2.4864  -2.2939  -2.2843
    -1.4310  -1.2635  -1.1916  -1.1777  -0.6078  -0.5775  -0.4102  -0.3988
    -0.1775  -0.1372  -0.0917   0.0915   2.5611   2.5821   2.9476   3.0537
     3.1342   3.2342   3.4559   3.5320   3.6173   3.8062

          k = 0.3889 0.0962 0.0000 ( 13609 PWs)   bands (ev):

   -72.8651 -72.8651 -59.9695 -59.9695 -44.3709 -44.3674 -35.9120 -35.9030
   -34.6323 -34.6224 -34.4930 -34.4901 -33.4550 -33.4461 -33.3282 -33.3242
   -12.3118 -12.2470 -12.0063 -11.9884 -11.6234 -11.6158 -11.4680 -11.4642
    -4.8781  -4.8501  -4.5489  -4.5397  -3.8270  -3.7686  -3.7059  -3.6301
    -3.4696  -3.4636  -3.1067  -3.0905  -2.6067  -2.5986  -2.4042  -2.3902
    -1.4839  -1.2731  -1.2086  -1.1848  -0.8086  -0.7876  -0.6586  -0.6470
    -0.1843  -0.1643  -0.0894   0.0961   2.6508   2.6811   3.0465   3.1229
     3.1977   3.3285   3.7172   3.7549   3.8184   3.9429

          k = 0.4444 0.1283 0.0000 ( 13595 PWs)   bands (ev):

   -72.8630 -72.8630 -59.9647 -59.9647 -44.3792 -44.3751 -35.9276 -35.9169
   -34.6660 -34.6524 -34.4970 -34.4955 -33.4849 -33.4719 -33.3327 -33.3303
   -12.0030 -11.9198 -11.7350 -11.7129 -11.5056 -11.4980 -11.3711 -11.3684
    -5.1591  -5.1473  -4.7552  -4.7538  -4.1243  -4.1050  -3.9984  -3.9796
    -3.5226  -3.4945  -3.1398  -3.1217  -2.6348  -2.6235  -2.4670  -2.4442
    -1.5014  -1.2749  -1.1890  -1.1603  -1.0083  -0.9946  -0.8701  -0.8558
    -0.0756  -0.0530   0.0536   0.2218   2.8228   2.8392   3.1940   3.2009
     3.3793   3.4363   3.8963   3.9542   4.0920   4.1643

          k = 0.5000 0.1604 0.0000 ( 13577 PWs)   bands (ev):

   -72.8616 -72.8616 -59.9616 -59.9616 -44.3847 -44.3801 -35.9379 -35.9260
   -34.6884 -34.6725 -34.4989 -34.4984 -33.5049 -33.4894 -33.3348 -33.3334
   -11.7826 -11.6847 -11.5457 -11.5214 -11.4238 -11.4176 -11.3054 -11.3035
    -5.3913  -5.3470  -4.9100  -4.8981  -4.3593  -4.3382  -4.2255  -4.2173
    -3.5718  -3.5359  -3.2182  -3.1962  -2.6260  -2.6047  -2.4977  -2.4699
    -1.4670  -1.2553  -1.2165  -1.1624  -1.0932  -1.0511  -1.0030  -0.9906
     0.0526   0.1044   0.2296   0.3895   2.8742   2.9168   3.3257   3.4122
     3.4594   3.6010   3.9446   4.2230   4.3394   4.4307

          k = 0.5556 0.1925 0.0000 ( 13576 PWs)   bands (ev):

   -72.8611 -72.8611 -59.9605 -59.9605 -44.3866 -44.3819 -35.9415 -35.9292
   -34.6962 -34.6795 -34.4995 -34.4993 -33.5119 -33.4955 -33.3354 -33.3344
   -11.7013 -11.5974 -11.4773 -11.4534 -11.3940 -11.3897 -11.2822 -11.2806
    -5.4768  -5.4199  -4.9665  -4.9502  -4.4436  -4.4192  -4.3053  -4.3003
    -3.6011  -3.5634  -3.2571  -3.2337  -2.6151  -2.5879  -2.5084  -2.4784
    -1.4484  -1.2854  -1.2568  -1.1749  -1.0853  -1.0547  -1.0255  -1.0197
     0.1175   0.1795   0.3116   0.4713   2.8592   2.9180   3.4146   3.4403
     3.5509   3.6720   3.9744   4.3921   4.4700   4.5288

          k = 0.3333-0.0000 0.0000 ( 13649 PWs)   bands (ev):

   -72.8680 -72.8680 -59.9759 -59.9759 -44.3599 -44.3568 -35.8919 -35.8840
   -34.5867 -34.5814 -34.4883 -34.4822 -33.4150 -33.4110 -33.3221 -33.3147
   -12.6931 -12.6409 -12.3445 -12.3298 -11.7695 -11.7621 -11.5898 -11.5854
    -4.6314  -4.5798  -4.2522  -4.2406  -3.7400  -3.7105  -3.2655  -3.2331
    -3.0926  -3.0866  -2.9812  -2.9692  -2.6787  -2.6508  -2.3621  -2.3523
    -1.5432  -1.3659  -1.2907  -1.2786  -0.4771  -0.4334  -0.3108  -0.2896
    -0.1502  -0.0913  -0.0684   0.1409   2.4946   2.5118   2.8925   3.0217
     3.1478   3.2138   3.3398   3.4246   3.6157   3.7858

          k = 0.3889 0.0321 0.0000 ( 13643 PWs)   bands (ev):

   -72.8655 -72.8655 -59.9703 -59.9703 -44.3700 -44.3657 -35.9103 -35.8992
   -34.6209 -34.6088 -34.5002 -34.4967 -33.4447 -33.4339 -33.3354 -33.3303
   -12.3702 -12.2920 -12.0527 -12.0315 -11.6399 -11.6311 -11.4800 -11.4760
    -4.7255  -4.6675  -4.4258  -4.4131  -3.7024  -3.6615  -3.5982  -3.5657
    -3.4494  -3.4344  -3.1032  -3.0959  -2.7715  -2.7672  -2.4548  -2.4430
    -1.7477  -1.5368  -1.4826  -1.4546  -0.6195  -0.5881  -0.5182  -0.4943
    -0.1768  -0.1173  -0.0846   0.1463   2.5443   2.5630   2.9832   3.1066
     3.1961   3.2717   3.5407   3.6044   3.7843   3.8821

          k = 0.4444 0.0642 0.0000 ( 13597 PWs)   bands (ev):

   -72.8633 -72.8633 -59.9653 -59.9653 -44.3788 -44.3734 -35.9266 -35.9127
   -34.6537 -34.6351 -34.5077 -34.5068 -33.4739 -33.4563 -33.3433 -33.3411
   -12.0610 -11.9555 -11.7768 -11.7493 -11.5164 -11.5065 -11.3766 -11.3734
    -4.9215  -4.9068  -4.5778  -4.5715  -4.0564  -4.0457  -3.9547  -3.9409
    -3.4581  -3.4385  -3.0757  -3.0569  -2.7591  -2.7450  -2.4794  -2.4520
    -1.9394  -1.7366  -1.6471  -1.6120  -0.8623  -0.8524  -0.7323  -0.7220
    -0.0778  -0.0445   0.0276   0.2444   2.7358   2.7532   3.1691   3.2163
     3.2974   3.3592   3.7807   3.8008   3.9366   4.0147

          k = 0.5000 0.0962 0.0000 ( 13578 PWs)   bands (ev):

   -72.8616 -72.8616 -59.9616 -59.9616 -44.3854 -44.3792 -35.9389 -35.9229
   -34.6789 -34.6555 -34.5133 -34.5121 -33.4968 -33.4740 -33.3479 -33.3478
   -11.8109 -11.6812 -11.5579 -11.5261 -11.4171 -11.4083 -11.2956 -11.2932
    -5.1261  -5.0883  -4.6919  -4.6819  -4.3872  -4.3610  -4.2676  -4.2584
    -3.4812  -3.4391  -3.1352  -3.1064  -2.7115  -2.6831  -2.4732  -2.4290
    -2.0071  -1.8200  -1.6824  -1.6512  -1.1148  -1.1080  -0.9311  -0.9247
     0.0872   0.0966   0.2168   0.4219   2.8319   2.8643   3.2879   3.3228
     3.4246   3.5541   3.9229   3.9519   4.0469   4.3368

          k = 0.5556 0.1283 0.0000 ( 13567 PWs)   bands (ev):

   -72.8607 -72.8607 -59.9596 -59.9596 -44.3889 -44.3823 -35.9455 -35.9283
   -34.6925 -34.6666 -34.5165 -34.5142 -33.5092 -33.4837 -33.3510 -33.3499
   -11.6679 -11.5229 -11.4357 -11.4053 -11.3587 -11.3551 -11.2513 -11.2490
    -5.2525  -5.1795  -4.7551  -4.7334  -4.5628  -4.5293  -4.4342  -4.4273
    -3.5482  -3.4994  -3.2176  -3.1871  -2.6503  -2.6055  -2.4623  -2.4055
    -1.9978  -1.8185  -1.6732  -1.6437  -1.2762  -1.2691  -1.0575  -1.0516
     0.2203   0.2371   0.3794   0.5857   2.7668   2.8157   3.2564   3.4380
     3.5639   3.7120   4.0151   4.0881   4.1767   4.5754

          k = 0.4444 0.0000 0.0000 ( 13607 PWs)   bands (ev):

   -72.8633 -72.8633 -59.9655 -59.9655 -44.3787 -44.3729 -35.9262 -35.9112
   -34.6483 -34.6275 -34.5125 -34.5124 -33.4690 -33.4494 -33.3482 -33.3464
   -12.0811 -11.9682 -11.7914 -11.7621 -11.5199 -11.5092 -11.3782 -11.3748
    -4.8233  -4.7891  -4.5054  -4.4943  -4.0384  -4.0265  -3.9266  -3.9100
    -3.4151  -3.4080  -3.0560  -3.0474  -2.7870  -2.7696  -2.4968  -2.4587
    -2.1101  -1.9290  -1.8677  -1.8319  -0.7916  -0.7841  -0.6702  -0.6589
    -0.0914  -0.0386   0.0120   0.2472   2.6933   2.7096   3.1617   3.2348
     3.2723   3.3123   3.6746   3.6958   3.9397   4.0037

          k = 0.5000 0.0321 0.0000 ( 13607 PWs)   bands (ev):

   -72.8616 -72.8616 -59.9616 -59.9616 -44.3858 -44.3788 -35.9393 -35.9211
   -34.6714 -34.6426 -34.5253 -34.5217 -33.4902 -33.4621 -33.3595 -33.3573
   -11.8269 -11.6812 -11.5650 -11.5296 -11.4128 -11.4024 -11.2892 -11.2865
    -4.9051  -4.8915  -4.5334  -4.5287  -4.4097  -4.3831  -4.2857  -4.2728
    -3.3349  -3.3054  -3.0454  -3.0282  -2.7663  -2.7152  -2.5542  -2.4275
    -2.3115  -2.2629  -2.1267  -2.1006  -1.0545  -1.0432  -0.8697  -0.8643
     0.0694   0.1055   0.1910   0.4240   2.7861   2.8106   3.2329   3.2391
     3.4305   3.5562   3.7435   3.7687   4.0084   4.3230

          k = 0.5556 0.0642 0.0000 ( 13563 PWs)   bands (ev):

   -72.8605 -72.8605 -59.9590 -59.9590 -44.3904 -44.3826 -35.9478 -35.9274
   -34.6868 -34.6523 -34.5338 -34.5273 -33.5046 -33.4705 -33.3678 -33.3626
   -11.6490 -11.4786 -11.4098 -11.3768 -11.3324 -11.3300 -11.2283 -11.2256
    -4.9749  -4.9124  -4.6745  -4.6390  -4.5284  -4.5161  -4.4982  -4.4791
    -3.4251  -3.3911  -3.1449  -3.1092  -2.7770  -2.6365  -2.5669  -2.4603
    -2.3129  -2.2928  -2.2091  -2.1712  -1.2840  -1.2666  -1.0630  -1.0566
     0.2635   0.2899   0.4094   0.6548   2.6616   2.6932   3.0857   3.2096
     3.6583   3.7541   3.8185   3.8821   4.1850   4.5084

          k = 0.6111 0.0962 0.0000 ( 13550 PWs)   bands (ev):

   -72.8601 -72.8601 -59.9582 -59.9581 -44.3920 -44.3839 -35.9508 -35.9297
   -34.6921 -34.6557 -34.5367 -34.5292 -33.5096 -33.4734 -33.3707 -33.3643
   -11.5842 -11.4036 -11.3542 -11.3328 -11.3059 -11.2934 -11.2068 -11.2036
    -4.9973  -4.9130  -4.7579  -4.7178  -4.6096  -4.5990  -4.4855  -4.4543
    -3.4972  -3.4635  -3.2305  -3.1953  -2.7436  -2.5669  -2.5329  -2.5060
    -2.2832  -2.2467  -2.2309  -2.1855  -1.3758  -1.3567  -1.1493  -1.1421
     0.3599   0.3848   0.5186   0.7766   2.5733   2.6020   2.9815   3.1181
     3.7651   3.8046   3.8884   3.9902   4.2783   4.5205

          k = 0.5556-0.0000 0.0000 ( 13577 PWs)   bands (ev):

   -72.8604 -72.8604 -59.9588 -59.9588 -44.3909 -44.3827 -35.9486 -35.9271
   -34.6840 -34.6454 -34.5418 -34.5327 -33.5023 -33.4640 -33.3757 -33.3678
   -11.6430 -11.4643 -11.4009 -11.3672 -11.3228 -11.3207 -11.2198 -11.2169
    -4.8278  -4.7880  -4.7076  -4.6731  -4.5576  -4.5457  -4.3890  -4.3706
    -3.3240  -3.2677  -3.0610  -3.0243  -2.9540  -2.8416  -2.6945  -2.5904
    -2.4958  -2.4940  -2.2789  -2.2295  -1.2819  -1.2605  -1.0682  -1.0590
     0.2731   0.3163   0.4167   0.6801   2.6165   2.6414   3.0143   3.1165
     3.6444   3.6791   3.7787   3.8862   4.1920   4.4354

          k = 0.6111 0.0321 0.0000 ( 13549 PWs)   bands (ev):

   -72.8597 -72.8597 -59.9574 -59.9574 -44.3936 -44.3848 -35.9535 -35.9303
   -34.6905 -34.6456 -34.5519 -34.5387 -33.5087 -33.4638 -33.3855 -33.3733
   -11.5404 -11.3416 -11.3110 -11.3001 -11.2782 -11.2514 -11.1814 -11.1775
    -4.8772  -4.8318  -4.7283  -4.7006  -4.6920  -4.6360  -4.2257  -4.1911
    -3.5732  -3.3878  -3.2605  -3.2415  -2.9631  -2.9301  -2.8011  -2.7617
    -2.4200  -2.3879  -2.2208  -2.1941  -1.4228  -1.3981  -1.2454  -1.2307
     0.4509   0.5066   0.6181   0.9268   2.4208   2.4316   2.7668   2.8458
     3.6520   3.6679   4.0011   4.1340   4.3135   4.4006

          k = 0.6667-0.0000 0.0000 ( 13548 PWs)   bands (ev):

   -72.8595 -72.8595 -59.9568 -59.9568 -44.3948 -44.3855 -35.9555 -35.9312
   -34.6915 -34.6418 -34.5597 -34.5430 -33.5100 -33.4598 -33.3933 -33.3773
   -11.5019 -11.2866 -11.2835 -11.2783 -11.2591 -11.2183 -11.1646 -11.1599
    -4.9452  -4.8981  -4.7757  -4.7632  -4.5157  -4.4764  -3.9981  -3.9595
    -3.8234  -3.5326  -3.3977  -3.3921  -3.0836  -2.9753  -2.9339  -2.9175
    -2.3390  -2.2817  -2.2341  -2.1903  -1.4256  -1.4095  -1.3838  -1.3549
     0.5426   0.6163   0.7231   1.0781   2.2990   2.3020   2.6093   2.6401
     3.6045   3.6226   4.1276   4.2716   4.3188   4.3440

     the Fermi energy is     1.3694 ev

!    total energy              =    -357.17995512 Ry
     Harris-Foulkes estimate   =    -357.17995513 Ry
     estimated scf accuracy    <          1.5E-09 Ry

     The total energy is the sum of the following terms:

     one-electron contribution =   -3895.26269038 Ry
     hartree contribution      =    1947.95366845 Ry
     xc contribution           =     -48.61260785 Ry
     ewald contribution        =    1638.74118394 Ry
     smearing contrib. (-TS)   =       0.00049072 Ry

     convergence has been achieved in   9 iterations

     Forces acting on atoms (cartesian axes, Ry/au):

     atom    1 type  3   force =     0.00000000    0.00000000    0.00044469
     atom    2 type  2   force =     0.00000000    0.00000000    0.01181546
     atom    3 type  2   force =     0.00000000    0.00000000   -0.01058785
     atom    4 type  1   force =     0.00000000    0.00000000   -0.00051088
     atom    5 type  2   force =     0.00000000    0.00000000    0.01223093
     atom    6 type  2   force =     0.00000000    0.00000000   -0.01339234

     Total force =     0.024106     Total SCF correction =     0.000228

     number of scf cycles    =   2
     number of bfgs steps    =   1

     energy   old            =    -357.1786865537 Ry
     energy   new            =    -357.1799551244 Ry

     CASE: energy  _new < energy  _old

     new trust radius        =       0.0247485048 bohr
     new conv_thr            =       0.0000000013 Ry


ATOMIC_POSITIONS (crystal)
Mo       0.000000000   0.000000000   0.395186939    0   0   1
S        0.333333333   0.666666667   0.342545463    0   0   1
S        0.333333333   0.666666667   0.447924059    0   0   1
W        0.333333333   0.666666667   0.605129047    0   0   1
S        0.000000000   0.000000000   0.552189499    0   0   1
S        0.000000000   0.000000000   0.657991286    0   0   1



     Writing output data file MoS2_WS2_da_0.000_db_0.000.save
     NEW-OLD atomic charge density approx. for the potential

     negative rho (up, down):  1.343E-06 0.000E+00

     total cpu time spent up to now is      447.1 secs

     Self-consistent Calculation

     iteration #  1     ecut=    60.00 Ry     beta= 0.70
     Davidson diagonalization with overlap
     ethr =  1.00E-06,  avg # of iterations =  4.2

     negative rho (up, down):  3.141E-07 0.000E+00

     total cpu time spent up to now is      466.6 secs

     total energy              =    -357.18058229 Ry
     Harris-Foulkes estimate   =    -357.18065412 Ry
     estimated scf accuracy    <       0.00010678 Ry

     iteration #  2     ecut=    60.00 Ry     beta= 0.70
     Davidson diagonalization with overlap
     ethr =  2.05E-07,  avg # of iterations =  3.9

     negative rho (up, down):  2.390E-07 0.000E+00

     total cpu time spent up to now is      482.0 secs

     total energy              =    -357.18052577 Ry
     Harris-Foulkes estimate   =    -357.18072578 Ry
     estimated scf accuracy    <       0.00062402 Ry

     iteration #  3     ecut=    60.00 Ry     beta= 0.70
     Davidson diagonalization with overlap
     ethr =  2.05E-07,  avg # of iterations =  3.3

     negative rho (up, down):  8.994E-08 0.000E+00

     total cpu time spent up to now is      496.0 secs

     total energy              =    -357.18062235 Ry
     Harris-Foulkes estimate   =    -357.18063397 Ry
     estimated scf accuracy    <       0.00003035 Ry

     iteration #  4     ecut=    60.00 Ry     beta= 0.70
     Davidson diagonalization with overlap
     ethr =  5.84E-08,  avg # of iterations =  3.3

     negative rho (up, down):  3.293E-08 0.000E+00

     total cpu time spent up to now is      510.0 secs

     total energy              =    -357.18061965 Ry
     Harris-Foulkes estimate   =    -357.18064100 Ry
     estimated scf accuracy    <       0.00010271 Ry

     iteration #  5     ecut=    60.00 Ry     beta= 0.70
     Davidson diagonalization with overlap
     ethr =  5.84E-08,  avg # of iterations =  3.0

     negative rho (up, down):  1.485E-08 0.000E+00

     total cpu time spent up to now is      522.7 secs

     total energy              =    -357.18062919 Ry
     Harris-Foulkes estimate   =    -357.18063124 Ry
     estimated scf accuracy    <       0.00000734 Ry

     iteration #  6     ecut=    60.00 Ry     beta= 0.70
     Davidson diagonalization with overlap
     ethr =  1.41E-08,  avg # of iterations =  2.4

     total cpu time spent up to now is      534.5 secs

     total energy              =    -357.18063024 Ry
     Harris-Foulkes estimate   =    -357.18063048 Ry
     estimated scf accuracy    <       0.00000070 Ry

     iteration #  7     ecut=    60.00 Ry     beta= 0.70
     Davidson diagonalization with overlap
     ethr =  1.34E-09,  avg # of iterations =  3.1

     total cpu time spent up to now is      547.6 secs

     total energy              =    -357.18063032 Ry
     Harris-Foulkes estimate   =    -357.18063047 Ry
     estimated scf accuracy    <       0.00000048 Ry

     iteration #  8     ecut=    60.00 Ry     beta= 0.70
     Davidson diagonalization with overlap
     ethr =  9.22E-10,  avg # of iterations =  2.6

     total cpu time spent up to now is      559.7 secs

     total energy              =    -357.18063040 Ry
     Harris-Foulkes estimate   =    -357.18063041 Ry
     estimated scf accuracy    <       0.00000006 Ry

     iteration #  9     ecut=    60.00 Ry     beta= 0.70
     Davidson diagonalization with overlap
     ethr =  1.13E-10,  avg # of iterations =  2.3

     total cpu time spent up to now is      571.6 secs

     End of self-consistent calculation

          k = 0.0000 0.0000 0.0000 ( 13703 PWs)   bands (ev):

   -72.8785 -72.8785 -59.9983 -59.9983 -44.3230 -44.3230 -35.8238 -35.8238
   -34.5242 -34.5242 -34.3737 -34.3737 -33.3561 -33.3561 -33.2056 -33.2056
   -13.9162 -13.9162 -13.4420 -13.4420 -12.2317 -12.2317 -11.9883 -11.9883
    -5.6278  -5.6278  -4.9161  -4.9161  -2.2367  -2.2367  -2.0960  -2.0960
    -2.0336  -2.0336  -1.9754  -1.9754  -1.6532  -1.6532  -0.9603  -0.9603
    -0.9307  -0.9307  -0.8697  -0.8697  -0.7148  -0.7148  -0.5602  -0.5602
     0.6475   0.6475   1.3330   1.3330   3.4082   3.4082   3.4898   3.4898
     3.6891   3.6891   3.7203   3.7203   3.7519   3.7519

          k = 0.0556 0.0321 0.0000 ( 13715 PWs)   bands (ev):

   -72.8780 -72.8780 -59.9972 -59.9972 -44.3249 -44.3249 -35.8269 -35.8269
   -34.5253 -34.5253 -34.3821 -34.3821 -33.3574 -33.3573 -33.2134 -33.2134
   -13.8649 -13.8641 -13.3958 -13.3951 -12.2132 -12.2116 -11.9722 -11.9710
    -5.5695  -5.5681  -4.8632  -4.8625  -2.3068  -2.3067  -2.1750  -2.1742
    -2.0131  -2.0122  -1.9912  -1.9902  -1.8113  -1.8002  -1.2081  -1.1885
    -0.9874  -0.9840  -0.9276  -0.9269  -0.7291  -0.7207  -0.3580  -0.3407
     0.6331   0.6372   1.2613   1.2633   3.3713   3.3735   3.5343   3.5360
     3.6205   3.6323   3.6514   3.6608   3.6896   3.6965

          k = 0.1111 0.0642 0.0000 ( 13689 PWs)   bands (ev):

   -72.8765 -72.8765 -59.9938 -59.9938 -44.3305 -44.3305 -35.8361 -35.8360
   -34.5294 -34.5293 -34.4052 -34.4052 -33.3618 -33.3617 -33.2350 -33.2349
   -13.7139 -13.7123 -13.2600 -13.2586 -12.1572 -12.1542 -11.9238 -11.9214
    -5.4008  -5.3985  -4.7139  -4.7128  -2.6178  -2.6170  -2.4469  -2.4446
    -2.1539  -2.1428  -1.8875  -1.8862  -1.8668  -1.8664  -1.6412  -1.6228
    -1.1903  -1.1897  -1.1232  -1.1228  -0.6429  -0.6278  -0.1791  -0.1652
     0.5740   0.5771   1.0352   1.0410   3.2493   3.2558   3.3319   3.3390
     3.4752   3.5191   3.5447   3.5562   3.7136   3.7542

          k = 0.1667 0.0962 0.0000 ( 13679 PWs)   bands (ev):

   -72.8743 -72.8743 -59.9887 -59.9887 -44.3390 -44.3390 -35.8504 -35.8503
   -34.5393 -34.5392 -34.4366 -34.4365 -33.3714 -33.3713 -33.2644 -33.2643
   -13.4737 -13.4711 -13.0444 -13.0422 -12.0678 -12.0637 -11.8468 -11.8435
    -5.1501  -5.1479  -4.5063  -4.5059  -3.0772  -3.0756  -2.8059  -2.8010
    -2.5258  -2.5156  -2.1196  -2.1031  -1.6814  -1.6795  -1.6485  -1.6473
    -1.4640  -1.4623  -1.4042  -1.4032  -0.6400  -0.6286  -0.1751  -0.1682
     0.4159   0.4170   0.6669   0.6736   3.0047   3.0206   3.2012   3.2332
     3.3266   3.3361   3.3703   3.4987   3.6909   3.6934

          k = 0.2222 0.1283 0.0000 ( 13661 PWs)   bands (ev):

   -72.8715 -72.8715 -59.9825 -59.9825 -44.3495 -44.3495 -35.8684 -35.8684
   -34.5612 -34.5611 -34.4646 -34.4645 -33.3907 -33.3906 -33.2918 -33.2918
   -13.1620 -13.1584 -12.7658 -12.7626 -11.9522 -11.9474 -11.7475 -11.7437
    -4.8897  -4.8896  -4.3445  -4.3428  -3.5316  -3.5284  -3.1380  -3.1220
    -2.9012  -2.8971  -2.5940  -2.5755  -1.7738  -1.7709  -1.7399  -1.7378
    -1.3891  -1.3861  -1.3584  -1.3562  -0.7517  -0.7451  -0.3289  -0.3265
     0.1328   0.1334   0.2518   0.2520   2.8364   2.8601   3.1347   3.1356
     3.2343   3.2434   3.4515   3.5071   3.5908   3.6716

          k = 0.2778 0.1604 0.0000 ( 13643 PWs)   bands (ev):

   -72.8685 -72.8685 -59.9758 -59.9758 -44.3607 -44.3607 -35.8882 -35.8882
   -34.5974 -34.5974 -34.4807 -34.4806 -33.4215 -33.4214 -33.3093 -33.3093
   -12.8044 -12.7999 -12.4483 -12.4442 -11.8210 -11.8160 -11.6358 -11.6319
    -4.7977  -4.7951  -4.4165  -4.4153  -3.7894  -3.7736  -3.4124  -3.3385
    -3.2035  -3.1779  -3.0233  -2.9938  -2.0558  -2.0544  -2.0182  -2.0173
    -1.1279  -1.1271  -1.0589  -1.0575  -0.9056  -0.8992  -0.5554  -0.5534
    -0.1872  -0.1830  -0.0781  -0.0705   2.8429   2.8697   2.9856   2.9873
     3.2719   3.2902   3.5134   3.5231   3.7730   3.8803

          k = 0.3333 0.1925 0.0000 ( 13627 PWs)   bands (ev):

   -72.8657 -72.8657 -59.9696 -59.9696 -44.3712 -44.3712 -35.9074 -35.9073
   -34.6387 -34.6386 -34.4879 -34.4879 -33.4570 -33.4569 -33.3180 -33.3180
   -12.4360 -12.4309 -12.1250 -12.1202 -11.6885 -11.6843 -11.5243 -11.5209
    -5.0177  -5.0159  -4.6636  -4.6628  -3.8996  -3.8257  -3.7192  -3.5782
    -3.4677  -3.4350  -3.1621  -3.1327  -2.2977  -2.2969  -2.2536  -2.2531
    -1.1154  -1.1032  -0.8870  -0.8617  -0.7872  -0.7846  -0.7299  -0.7199
    -0.3437  -0.3406  -0.2188  -0.2106   2.8690   2.8716   3.0000   3.0248
     3.3285   3.3459   3.6306   3.6373   4.0707   4.1551

[...]
   -13.3159 -13.3028 -12.8963 -12.8918 -12.0039 -11.9992 -11.7921 -11.7885
    -4.9944  -4.9848  -4.3984  -4.3969  -3.3943  -3.3668  -3.0283  -3.0208
    -2.7301  -2.7159  -2.3767  -2.3579  -1.8109  -1.7950  -1.7647  -1.7499
    -1.5843  -1.5368  -1.5095  -1.4897  -0.5756  -0.5571  -0.1697  -0.1633
     0.2666   0.2743   0.4058   0.4522   2.8587   2.8767   3.1411   3.1747
     3.2182   3.2602   3.3206   3.4629   3.5738   3.6782

          k = 0.2778 0.0962 0.0000 ( 13668 PWs)   bands (ev):

   -72.8700 -72.8700 -59.9781 -59.9781 -44.3586 -44.3573 -35.8830 -35.8797
   -34.5835 -34.5822 -34.4830 -34.4795 -33.4081 -33.4074 -33.3095 -33.3054
   -12.9836 -12.9624 -12.5980 -12.5912 -11.8814 -11.8762 -11.6870 -11.6831
    -4.8018  -4.7832  -4.3447  -4.3421  -3.7288  -3.7232  -3.2825  -3.2502
    -3.0745  -3.0670  -2.8424  -2.8221  -2.1091  -2.0906  -2.0415  -2.0325
    -1.3793  -1.2866  -1.2454  -1.2342  -0.7042  -0.6865  -0.3645  -0.3609
    -0.0519  -0.0354   0.0264   0.1132   2.7503   2.7738   3.0638   3.0820
     3.1518   3.2863   3.4605   3.5035   3.5769   3.7551

          k = 0.3333 0.1283 0.0000 ( 13652 PWs)   bands (ev):

   -72.8671 -72.8671 -59.9716 -59.9716 -44.3697 -44.3679 -35.9031 -35.8987
   -34.6246 -34.6207 -34.4932 -34.4908 -33.4434 -33.4400 -33.3213 -33.3183
   -12.6230 -12.5923 -12.2771 -12.2676 -11.7504 -11.7449 -11.5752 -11.5716
    -4.8810  -4.8596  -4.5389  -4.5339  -3.8333  -3.7945  -3.5776  -3.4766
    -3.3412  -3.3133  -3.1512  -3.1214  -2.3379  -2.3245  -2.2647  -2.2604
    -1.2314  -1.0782  -1.0229  -1.0150  -0.8717  -0.8512  -0.6093  -0.5993
    -0.2736  -0.2587  -0.1730  -0.0712   2.7511   2.7868   3.0206   3.0589
     3.1811   3.3496   3.5612   3.6411   3.8417   3.9563

          k = 0.3889 0.1604 0.0000 ( 13615 PWs)   bands (ev):

   -72.8646 -72.8646 -59.9659 -59.9659 -44.3795 -44.3773 -35.9212 -35.9158
   -34.6647 -34.6584 -34.4976 -34.4962 -33.4784 -33.4726 -33.3268 -33.3248
   -12.2745 -12.2337 -11.9709 -11.9588 -11.6268 -11.6217 -11.4709 -11.4680
    -5.1719  -5.1683  -4.7848  -4.7823  -4.0016  -3.9455  -3.8364  -3.7587
    -3.5475  -3.5400  -3.1821  -3.1620  -2.4936  -2.4890  -2.4320  -2.4235
    -1.1854  -1.0718  -1.0090  -0.9175  -0.8583  -0.8336  -0.7898  -0.7782
    -0.2940  -0.2399  -0.1442  -0.0450   2.8027   2.8354   3.0993   3.1318
     3.3006   3.4197   3.7430   3.7857   4.1395   4.2173

          k = 0.4444 0.1925 0.0000 ( 13577 PWs)   bands (ev):

   -72.8627 -72.8627 -59.9617 -59.9617 -44.3867 -44.3843 -35.9350 -35.9288
   -34.6954 -34.6875 -34.4996 -34.4987 -33.5053 -33.4978 -33.3292 -33.3278
   -11.9896 -11.9396 -11.7253 -11.7112 -11.5297 -11.5252 -11.3895 -11.3877
    -5.4656  -5.4488  -4.9967  -4.9928  -4.2331  -4.2100  -4.0600  -4.0354
    -3.6097  -3.5896  -3.2505  -3.2360  -2.5928  -2.5877  -2.5403  -2.5310
    -1.2128  -1.1734  -1.0503  -1.0002  -0.8847  -0.7585  -0.6944  -0.6683
    -0.1802  -0.0886   0.0185   0.1100   2.8603   2.8637   3.2511   3.2761
     3.4730   3.4845   3.9078   4.0084   4.3860   4.4493

          k = 0.5000 0.2245 0.0000 ( 13567 PWs)   bands (ev):

   -72.8617 -72.8617 -59.9594 -59.9594 -44.3906 -44.3881 -35.9424 -35.9358
   -34.7119 -34.7032 -34.5003 -34.4998 -33.5198 -33.5114 -33.3301 -33.3291
   -11.8254 -11.7695 -11.5866 -11.5719 -11.4765 -11.4729 -11.3449 -11.3439
    -5.6389  -5.6097  -5.1205  -5.1124  -4.3697  -4.3567  -4.1959  -4.1885
    -3.6552  -3.6353  -3.3154  -3.3028  -2.6434  -2.6316  -2.5928  -2.5847
    -1.2415  -1.2246  -1.1008  -1.0791  -0.8555  -0.6862  -0.5948  -0.5758
    -0.0643   0.0466   0.1570   0.2479   2.8629   2.8938   3.3607   3.4238
     3.4954   3.6260   4.0031   4.2587   4.5401   4.5826

          k = 0.2222 0.0000 0.0000 ( 13685 PWs)   bands (ev):

   -72.8733 -72.8733 -59.9855 -59.9855 -44.3461 -44.3450 -35.8612 -35.8584
   -34.5497 -34.5486 -34.4594 -34.4540 -33.3796 -33.3782 -33.2848 -33.2793
   -13.3623 -13.3451 -12.9364 -12.9309 -12.0200 -12.0153 -11.8059 -11.8023
    -5.0274  -5.0148  -4.4140  -4.4120  -3.3326  -3.2874  -2.9784  -2.9693
    -2.6325  -2.6105  -2.2397  -2.2099  -1.9177  -1.8876  -1.8381  -1.8132
    -1.6636  -1.5961  -1.5611  -1.5377  -0.4572  -0.4304  -0.0704  -0.0625
     0.3143   0.3234   0.4722   0.5300   2.8548   2.8682   3.0662   3.1253
     3.2289   3.2646   3.2844   3.3954   3.5595   3.6313

          k = 0.2778 0.0321 0.0000 ( 13670 PWs)   bands (ev):

   -72.8706 -72.8706 -59.9796 -59.9796 -44.3564 -44.3545 -35.8793 -35.8744
   -34.5721 -34.5712 -34.4842 -34.4778 -33.3982 -33.3980 -33.3102 -33.3031
   -13.0676 -13.0362 -12.6694 -12.6600 -11.9095 -11.9037 -11.7104 -11.7066
    -4.8022  -4.7744  -4.2909  -4.2866  -3.6704  -3.6570  -3.2047  -3.1967
    -2.9196  -2.8943  -2.6469  -2.6315  -2.3269  -2.2891  -2.1641  -2.1436
    -1.5486  -1.4220  -1.3688  -1.3502  -0.4683  -0.4362  -0.1686  -0.1612
     0.0340   0.0695   0.1074   0.2391   2.6621   2.6787   3.0040   3.0815
     3.1459   3.2187   3.2728   3.3955   3.5214   3.7222

          k = 0.3333 0.0642 0.0000 ( 13644 PWs)   bands (ev):

   -72.8678 -72.8678 -59.9733 -59.9733 -44.3674 -44.3645 -35.8991 -35.8918
   -34.6087 -34.6028 -34.4986 -34.4938 -33.4292 -33.4246 -33.3264 -33.3205
   -12.7309 -12.6819 -12.3662 -12.3521 -11.7839 -11.7771 -11.6025 -11.5986
    -4.7537  -4.7075  -4.3964  -4.3938  -3.7937  -3.7729  -3.3991  -3.3477
    -3.1994  -3.1885  -3.1096  -3.0872  -2.5609  -2.5389  -2.3496  -2.3418
    -1.5063  -1.3233  -1.2563  -1.2510  -0.5992  -0.5700  -0.3904  -0.3782
    -0.1881  -0.1562  -0.1061   0.0653   2.5999   2.6213   2.9699   3.0736
     3.1520   3.2608   3.4682   3.5427   3.6298   3.8249

          k = 0.3889 0.0962 0.0000 ( 13609 PWs)   bands (ev):

   -72.8652 -72.8652 -59.9674 -59.9674 -44.3777 -44.3740 -35.9181 -35.9086
   -34.6488 -34.6379 -34.5056 -34.5030 -33.4642 -33.4544 -33.3347 -33.3309
   -12.3864 -12.3177 -12.0590 -12.0398 -11.6571 -11.6494 -11.4941 -11.4908
    -4.9593  -4.9307  -4.6164  -4.6070  -3.8641  -3.8033  -3.7522  -3.6759
    -3.5146  -3.5092  -3.1460  -3.1312  -2.6561  -2.6480  -2.4590  -2.4441
    -1.5441  -1.3190  -1.2658  -1.2292  -0.7945  -0.7744  -0.6385  -0.6263
    -0.2116  -0.1998  -0.1163   0.0579   2.6816   2.7134   3.0571   3.1292
     3.2083   3.3514   3.7197   3.7531   3.8391   3.9590

          k = 0.4444 0.1283 0.0000 ( 13595 PWs)   bands (ev):

   -72.8631 -72.8631 -59.9626 -59.9626 -44.3862 -44.3818 -35.9339 -35.9226
   -34.6832 -34.6685 -34.5092 -34.5081 -33.4948 -33.4808 -33.3388 -33.3367
   -12.0785 -11.9902 -11.7887 -11.7646 -11.5464 -11.5384 -11.4003 -11.3978
    -5.2316  -5.2194  -4.8106  -4.8090  -4.1684  -4.1504  -4.0336  -4.0168
    -3.5646  -3.5365  -3.1824  -3.1647  -2.6853  -2.6740  -2.5198  -2.4969
    -1.5517  -1.3127  -1.2310  -1.1902  -0.9925  -0.9785  -0.8506  -0.8375
    -0.1148  -0.0834   0.0229   0.1821   2.8410   2.8552   3.1933   3.1944
     3.3891   3.4425   3.8767   3.9426   4.1236   4.1900

          k = 0.5000 0.1604 0.0000 ( 13577 PWs)   bands (ev):

   -72.8617 -72.8617 -59.9594 -59.9594 -44.3917 -44.3868 -35.9444 -35.9319
   -34.7061 -34.6889 -34.5110 -34.5108 -33.5152 -33.4985 -33.3407 -33.3396
   -11.8595 -11.7556 -11.6004 -11.5732 -11.4702 -11.4631 -11.3364 -11.3346
    -5.4553  -5.4095  -4.9554  -4.9428  -4.4042  -4.3822  -4.2584  -4.2506
    -3.6171  -3.5798  -3.2667  -3.2454  -2.6805  -2.6589  -2.5482  -2.5215
    -1.5089  -1.2698  -1.2068  -1.1601  -1.1134  -1.0719  -0.9881  -0.9761
     0.0158   0.0763   0.2003   0.3532   2.8649   2.9110   3.3209   3.4118
     3.4401   3.5983   3.9177   4.2293   4.3810   4.4557

          k = 0.5556 0.1925 0.0000 ( 13576 PWs)   bands (ev):

   -72.8612 -72.8612 -59.9583 -59.9583 -44.3936 -44.3886 -35.9480 -35.9351
   -34.7141 -34.6961 -34.5117 -34.5115 -33.5223 -33.5047 -33.3412 -33.3405
   -11.7790 -11.6689 -11.5323 -11.5047 -11.4427 -11.4371 -11.3139 -11.3121
    -5.5375  -5.4785  -5.0078  -4.9906  -4.4882  -4.4627  -4.3374  -4.3323
    -3.6485  -3.6090  -3.3084  -3.2859  -2.6721  -2.6452  -2.5568  -2.5290
    -1.4853  -1.2652  -1.2433  -1.1834  -1.1054  -1.0570  -1.0316  -1.0218
     0.0826   0.1531   0.2839   0.4373   2.8402   2.9010   3.3917   3.4282
     3.5514   3.6469   3.9627   4.4099   4.5181   4.5587

          k = 0.3333-0.0000 0.0000 ( 13649 PWs)   bands (ev):

   -72.8681 -72.8681 -59.9739 -59.9739 -44.3666 -44.3634 -35.8977 -35.8894
   -34.6019 -34.5957 -34.5016 -34.4959 -33.4231 -33.4184 -33.3293 -33.3221
   -12.7679 -12.7126 -12.3969 -12.3810 -11.7952 -11.7879 -11.6116 -11.6077
    -4.7044  -4.6484  -4.3342  -4.3265  -3.7909  -3.7614  -3.3080  -3.2744
    -3.1415  -3.1357  -3.0462  -3.0297  -2.7205  -2.6923  -2.4097  -2.4026
    -1.6183  -1.4243  -1.3553  -1.3482  -0.4704  -0.4278  -0.2909  -0.2700
    -0.1594  -0.1090  -0.0836   0.1146   2.5362   2.5528   2.9181   3.0452
     3.1640   3.2354   3.3507   3.4370   3.6228   3.8021

          k = 0.3889 0.0321 0.0000 ( 13643 PWs)   bands (ev):

   -72.8656 -72.8656 -59.9682 -59.9682 -44.3768 -44.3723 -35.9164 -35.9047
   -34.6375 -34.6240 -34.5128 -34.5097 -33.4540 -33.4420 -33.3418 -33.3371
   -12.4450 -12.3621 -12.1056 -12.0825 -11.6723 -11.6633 -11.5054 -11.5019
    -4.8095  -4.7501  -4.4977  -4.4837  -3.7471  -3.7051  -3.6546  -3.6238
    -3.5032  -3.4881  -3.1387  -3.1308  -2.8029  -2.7985  -2.4992  -2.4857
    -1.8089  -1.5811  -1.5391  -1.4970  -0.6068  -0.5752  -0.4981  -0.4734
    -0.2033  -0.1538  -0.1122   0.1074   2.5838   2.6022   3.0059   3.1191
     3.1979   3.2910   3.5566   3.6229   3.7715   3.8841

          k = 0.4444 0.0642 0.0000 ( 13597 PWs)   bands (ev):

   -72.8633 -72.8633 -59.9632 -59.9632 -44.3858 -44.3801 -35.9330 -35.9183
   -34.6712 -34.6509 -34.5198 -34.5195 -33.4841 -33.4650 -33.3493 -33.3476
   -12.1366 -12.0245 -11.8306 -11.8004 -11.5557 -11.5452 -11.4052 -11.4024
    -4.9990  -4.9845  -4.6370  -4.6309  -4.1206  -4.1088  -4.0026  -3.9889
    -3.4964  -3.4779  -3.1097  -3.0912  -2.7898  -2.7746  -2.5201  -2.4913
    -1.9921  -1.7788  -1.6917  -1.6482  -0.8401  -0.8303  -0.7150  -0.7041
    -0.1101  -0.0851  -0.0059   0.2022   2.7715   2.7880   3.1751   3.2015
     3.3019   3.3813   3.8018   3.8223   3.9126   3.9985

          k = 0.5000 0.0962 0.0000 ( 13578 PWs)   bands (ev):

   -72.8617 -72.8617 -59.9594 -59.9594 -44.3924 -44.3859 -35.9454 -35.9286
   -34.6970 -34.6718 -34.5258 -34.5240 -33.5075 -33.4830 -33.3541 -33.3536
   -11.8879 -11.7500 -11.6130 -11.5771 -11.4627 -11.4527 -11.3265 -11.3241
    -5.1939  -5.1547  -4.7403  -4.7298  -4.4504  -4.4232  -4.3138  -4.3044
    -3.5222  -3.4804  -3.1766  -3.1492  -2.7441  -2.7131  -2.5096  -2.4654
    -2.0531  -1.8576  -1.7212  -1.6831  -1.0874  -1.0806  -0.9134  -0.9069
     0.0508   0.0618   0.1828   0.3811   2.8328   2.8704   3.2780   3.3304
     3.4160   3.5579   3.9055   3.9878   4.0723   4.3322

          k = 0.5556 0.1283 0.0000 ( 13567 PWs)   bands (ev):

   -72.8608 -72.8608 -59.9575 -59.9575 -44.3960 -44.3890 -35.9521 -35.9340
   -34.7109 -34.6830 -34.5289 -34.5260 -33.5201 -33.4928 -33.3572 -33.3555
   -11.7463 -11.5921 -11.4916 -11.4553 -11.4086 -11.4030 -11.2833 -11.2807
    -5.3137  -5.2379  -4.7959  -4.7735  -4.6243  -4.5902  -4.4793  -4.4722
    -3.5940  -3.5447  -3.2661  -3.2376  -2.6856  -2.6390  -2.4939  -2.4393
    -2.0402  -1.8523  -1.7084  -1.6718  -1.2462  -1.2388  -1.0386  -1.0328
     0.1837   0.2072   0.3472   0.5480   2.7442   2.7948   3.2186   3.4107
     3.5717   3.7183   4.0335   4.1413   4.2134   4.5887

          k = 0.4444 0.0000 0.0000 ( 13607 PWs)   bands (ev):

   -72.8634 -72.8634 -59.9634 -59.9634 -44.3856 -44.3795 -35.9326 -35.9168
   -34.6659 -34.6433 -34.5251 -34.5246 -33.4793 -33.4580 -33.3541 -33.3530
   -12.1568 -12.0367 -11.8453 -11.8129 -11.5587 -11.5473 -11.4066 -11.4036
    -4.9036  -4.8696  -4.5660  -4.5551  -4.1094  -4.0960  -3.9831  -3.9668
    -3.4506  -3.4438  -3.0823  -3.0739  -2.8123  -2.7933  -2.5347  -2.4930
    -2.1619  -1.9710  -1.9134  -1.8680  -0.7691  -0.7613  -0.6540  -0.6415
    -0.1240  -0.0794  -0.0223   0.2042   2.7339   2.7497   3.1817   3.2165
     3.2635   3.3409   3.7029   3.7207   3.9092   3.9758

          k = 0.5000 0.0321 0.0000 ( 13607 PWs)   bands (ev):

   -72.8617 -72.8617 -59.9594 -59.9594 -44.3928 -44.3854 -35.9459 -35.9267
   -34.6898 -34.6588 -34.5378 -34.5334 -33.5012 -33.4710 -33.3657 -33.3628
   -11.9040 -11.7487 -11.6204 -11.5802 -11.4577 -11.4461 -11.3200 -11.3173
    -4.9768  -4.9623  -4.5850  -4.5803  -4.4810  -4.4537  -4.3426  -4.3301
    -3.3706  -3.3442  -3.0731  -3.0562  -2.7979  -2.7350  -2.5881  -2.4554
    -2.3473  -2.2995  -2.1668  -2.1393  -1.0271  -1.0159  -0.8536  -0.8479
     0.0364   0.0654   0.1552   0.3810   2.7947   2.8236   3.2300   3.2449
     3.4250   3.5602   3.7800   3.7973   3.9856   4.3141

          k = 0.5556 0.0642 0.0000 ( 13563 PWs)   bands (ev):

   -72.8605 -72.8605 -59.9569 -59.9569 -44.3975 -44.3893 -35.9546 -35.9331
   -34.7056 -34.6687 -34.5462 -34.5388 -33.5161 -33.4797 -33.3739 -33.3679
   -11.7277 -11.5456 -11.4666 -11.4259 -11.3829 -11.3779 -11.2605 -11.2574
    -5.0377  -4.9730  -4.7456  -4.7086  -4.5839  -4.5723  -4.5420  -4.5213
    -3.4679  -3.4381  -3.1848  -3.1519  -2.8118  -2.6514  -2.5924  -2.4856
    -2.3430  -2.3184  -2.2424  -2.2062  -1.2551  -1.2374  -1.0459  -1.0396
     0.2328   0.2526   0.3752   0.6147   2.6369   2.6702   3.0467   3.1802
     3.6774   3.7833   3.8647   3.9190   4.2014   4.5569

          k = 0.6111 0.0962 0.0000 ( 13550 PWs)   bands (ev):

   -72.8601 -72.8601 -59.9560 -59.9560 -44.3992 -44.3906 -35.9576 -35.9353
   -34.7111 -34.6722 -34.5491 -34.5406 -33.5213 -33.4827 -33.3767 -33.3695
   -11.6636 -11.4707 -11.4118 -11.3811 -11.3550 -11.3461 -11.2393 -11.2359
    -5.0562  -4.9690  -4.8293  -4.7883  -4.6656  -4.6555  -4.5227  -4.4904
    -3.5440  -3.5141  -3.2766  -3.2437  -2.7805  -2.5886  -2.5499  -2.5264
    -2.3108  -2.2755  -2.2591  -2.2159  -1.3468  -1.3274  -1.1314  -1.1243
     0.3311   0.3495   0.4862   0.7390   2.5382   2.5677   2.9289   3.0664
     3.8034   3.8616   3.9313   4.0169   4.3090   4.5750

          k = 0.5556-0.0000 0.0000 ( 13577 PWs)   bands (ev):

   -72.8605 -72.8605 -59.9567 -59.9567 -44.3981 -44.3894 -35.9554 -35.9327
   -34.7030 -34.6619 -34.5541 -34.5440 -33.5140 -33.4732 -33.3816 -33.3729
   -11.7217 -11.5303 -11.4581 -11.4162 -11.3733 -11.3686 -11.2520 -11.2488
    -4.8919  -4.8511  -4.7820  -4.7473  -4.6182  -4.6070  -4.4316  -4.4126
    -3.3762  -3.3096  -3.0885  -3.0515  -2.9921  -2.8726  -2.7228  -2.6263
    -2.5156  -2.5136  -2.3003  -2.2557  -1.2539  -1.2320  -1.0518  -1.0432
     0.2423   0.2788   0.3820   0.6392   2.5913   2.6179   2.9753   3.0870
     3.6784   3.7224   3.8132   3.9114   4.2130   4.4843

          k = 0.6111 0.0321 0.0000 ( 13549 PWs)   bands (ev):

   -72.8598 -72.8598 -59.9552 -59.9552 -44.4008 -44.3915 -35.9604 -35.9359
   -34.7099 -34.6623 -34.5640 -34.5499 -33.5208 -33.4733 -33.3912 -33.3783
   -11.6203 -11.4066 -11.3700 -11.3490 -11.3281 -11.3041 -11.2142 -11.2102
    -4.9527  -4.9063  -4.7879  -4.7632  -4.7523  -4.6935  -4.2595  -4.2244
    -3.6332  -3.4379  -3.2989  -3.2773  -2.9985  -2.9672  -2.8280  -2.7931
    -2.4332  -2.4005  -2.2335  -2.2083  -1.3975  -1.3720  -1.2281  -1.2143
     0.4239   0.4732   0.5869   0.8909   2.3786   2.3898   2.7066   2.7845
     3.7129   3.7266   4.0357   4.1676   4.3616   4.4557

          k = 0.6667-0.0000 0.0000 ( 13548 PWs)   bands (ev):

   -72.8595 -72.8595 -59.9546 -59.9546 -44.4020 -44.3922 -35.9624 -35.9368
   -34.7111 -34.6586 -34.5716 -34.5540 -33.5223 -33.4696 -33.3988 -33.3821
   -11.5824 -11.3541 -11.3388 -11.3279 -11.3111 -11.2704 -11.1975 -11.1930
    -5.0228  -4.9743  -4.8389  -4.8279  -4.5694  -4.5304  -4.0249  -3.9864
    -3.8857  -3.5765  -3.4482  -3.4319  -3.1214  -3.0175  -2.9637  -2.9474
    -2.3526  -2.2950  -2.2364  -2.1907  -1.4082  -1.3882  -1.3626  -1.3378
     0.5184   0.5860   0.6947   1.0469   2.2495   2.2529   2.5406   2.5672
     3.6681   3.6845   4.1681   4.3109   4.3761   4.4018

     the Fermi energy is     1.4191 ev

!    total energy              =    -357.18067898 Ry
     Harris-Foulkes estimate   =    -357.18067898 Ry
     estimated scf accuracy    <          1.8E-10 Ry

     The total energy is the sum of the following terms:

     one-electron contribution =   -3904.07419056 Ry
     hartree contribution      =    1952.33447873 Ry
     xc contribution           =     -48.66188817 Ry
     ewald contribution        =    1643.22051020 Ry
     smearing contrib. (-TS)   =       0.00041082 Ry

     convergence has been achieved in   9 iterations

     Forces acting on atoms (cartesian axes, Ry/au):

     atom    1 type  3   force =     0.00000000    0.00000000    0.00064420
     atom    2 type  2   force =     0.00000000    0.00000000    0.00067600
     atom    3 type  2   force =     0.00000000    0.00000000    0.00051768
     atom    4 type  1   force =     0.00000000    0.00000000   -0.00060728
     atom    5 type  2   force =     0.00000000    0.00000000   -0.00088354
     atom    6 type  2   force =     0.00000000    0.00000000   -0.00034705

     Total force =     0.001552     Total SCF correction =     0.000072

     bfgs converged in   4 scf cycles and   3 bfgs steps
     (criteria: energy <  1.0E-04 Ry, force <  1.0E-03 Ry/Bohr)

     End of BFGS Geometry Optimization

     Final energy   =    -357.1806789785 Ry
Begin final coordinates

ATOMIC_POSITIONS (crystal)
Mo       0.000000000   0.000000000   0.395206707    0   0   1
S        0.333333333   0.666666667   0.342695335    0   0   1
S        0.333333333   0.666666667   0.447806971    0   0   1
W        0.333333333   0.666666667   0.605110054    0   0   1
S        0.000000000   0.000000000   0.552314942    0   0   1
S        0.000000000   0.000000000   0.657832285    0   0   1
End final coordinates



     Writing output data file MoS2_WS2_da_0.000_db_0.000.save
 
     init_run     :      4.73s CPU      5.27s WALL (       1 calls)
     electrons    :    589.12s CPU    689.20s WALL (       4 calls)
     update_pot   :      3.82s CPU      3.83s WALL (       3 calls)
     forces       :     13.23s CPU     13.45s WALL (       4 calls)

     Called by init_run:
     wfcinit      :      3.30s CPU      3.75s WALL (       1 calls)
     potinit      :      0.65s CPU      0.66s WALL (       1 calls)

     Called by electrons:
     c_bands      :    515.52s CPU    611.60s WALL (      48 calls)
     sum_band     :     72.16s CPU     75.74s WALL (      48 calls)
     v_of_rho     :      0.30s CPU      0.31s WALL (      50 calls)
     mix_rho      :      0.92s CPU      0.97s WALL (      48 calls)

     Called by c_bands:
     init_us_2    :      3.98s CPU      4.04s WALL (    1010 calls)
     cegterg      :    478.13s CPU    570.03s WALL (     480 calls)

     Called by sum_band:

     Called by *egterg:
     h_psi        :    365.30s CPU    387.55s WALL (    2309 calls)
     g_psi        :      0.85s CPU      0.90s WALL (    1819 calls)
     cdiaghg      :     70.35s CPU    118.91s WALL (    2249 calls)

     Called by h_psi:
     h_psi:pot    :    364.50s CPU    386.65s WALL (    2309 calls)
     h_psi:calbec :      8.80s CPU     11.21s WALL (    2309 calls)
     vloc_psi     :    337.94s CPU    355.66s WALL (    2309 calls)
     add_vuspsi   :     17.68s CPU     19.72s WALL (    2309 calls)

     General routines
     calbec       :      9.74s CPU     12.33s WALL (    2469 calls)
     fft          :      0.87s CPU      0.94s WALL (     496 calls)
     fftw         :    362.97s CPU    383.24s WALL (  382568 calls)
 
     Parallel routines
     fft_scatt_xy :     44.69s CPU     46.29s WALL (  383064 calls)
     fft_scatt_yz :     89.19s CPU     93.88s WALL (  383064 calls)
 
     PWSCF        : 10m15.26s CPU    11m58.33s WALL

 
   This run was terminated on:  17:45:42  12Mar2018            

=------------------------------------------------------------------------------=
   JOB DONE.
=------------------------------------------------------------------------------=
TACC:  Shutdown complete. Exiting. 
